144
Lattice="11.174675241468789 0.0 0.0 5.587337620734394 9.677552638152974 0.0 0.0 0.0 46.84306309572773" Properties=species:S:1:pos:R:3:forces:R:3 energy=38.3217281438439 pbc="T T T"
Pt       0.00000000       0.00000000      20.00000000      -0.00708210       0.00011467      -0.49196699
Pt       2.79366881       0.00000000      20.00000000       0.00807918       0.00310075      -0.49341607
Pt       5.58733762       0.00000000      20.00000000      -0.00074948      -0.05314831      -0.45352721
Pt       8.38100643       0.00000000      20.00000000       0.01844458       0.01162859      -0.49637386
Pt       1.39683441       2.41938816      20.00000000      -0.00020132      -0.00169050      -0.49323174
Pt       4.19050322       2.41938816      20.00000000      -0.04064966       0.01957741      -0.43509933
Pt       6.98417203       2.41938816      20.00000000       0.06276372       0.02362175      -0.45276874
Pt       9.77784084       2.41938816      20.00000000      -0.00736467      -0.00673321      -0.49291086
Pt      13.96834405       4.83877632      20.00000000       0.00336429       0.00127167      -0.49242979
Pt       5.58733762       4.83877632      20.00000000       0.00077390      -0.00991649      -0.49219942
Pt       8.38100643       4.83877632      20.00000000      -0.00481619      -0.00149253      -0.49560821
Pt      11.17467524       4.83877632      20.00000000       0.00022651      -0.00002005      -0.49419975
Pt       4.19050322       7.25816448      20.00000000      -0.00484499       0.00507022      -0.49298233
Pt       6.98417203       7.25816448      20.00000000       0.00115494      -0.00101507      -0.49389380
Pt       9.77784084       7.25816448      20.00000000       0.00026097       0.00321491      -0.49274656
Pt      12.57150965       7.25816448      20.00000000       0.00090323       0.00362680      -0.49165949
Pt       1.39683441       0.80646272      22.28102103      -0.00012598      -0.00348744       0.26472080
Pt       4.19050322       0.80646272      22.28102103      -0.00037487      -0.00042577       0.25784028
Pt       6.98417203       0.80646272      22.28102103      -0.00146579      -0.00047488       0.26238266
Pt       9.77784084       0.80646272      22.28102103       0.00305627       0.00148353       0.27699757
Pt       2.79366881       3.22585088      22.28102103      -0.00756239       0.00415130       0.27949950
Pt       5.58733762       3.22585088      22.28102103       0.00042346      -0.00022703       0.25432867
Pt       8.38100643       3.22585088      22.28102103       0.01035178       0.00547491       0.28568968
Pt      11.17467524       3.22585088      22.28102103      -0.00236027      -0.00087855       0.26503500
Pt       4.19050322       5.64523904      22.28102103       0.00338203       0.00146244       0.26540858
Pt       6.98417203       5.64523904      22.28102103      -0.00109632       0.00049262       0.26646248
Pt       9.77784084       5.64523904      22.28102103      -0.00165322       0.00263024       0.26313752
Pt      12.57150965       5.64523904      22.28102103      -0.00081555       0.00083921       0.26698595
Pt       5.58733762       8.06462720      22.28102103       0.00002751      -0.00011596       0.26774648
Pt       8.38100643       8.06462720      22.28102103       0.00099707      -0.00026148       0.26458916
Pt      11.17467524       8.06462720      22.28102103      -0.00214790      -0.01044228       0.27833351
Pt      13.96834405       8.06462720      22.28102103       0.00024091      -0.00064355       0.27054334
Pt      11.17467524       1.61292544      24.56204206       0.00233482       0.00414668      -0.26477659
Pt       2.79366881       1.61292544      24.56204206      -0.00121176       0.00283644      -0.26617193
Pt       5.58733762       1.61292544      24.56204206      -0.00064303       0.00062092      -0.26827973
Pt       8.38100643       1.61292544      24.56204206       0.00019026       0.00133517      -0.26898602
Pt      12.57150965       4.03231360      24.56204206      -0.00611665       0.00212579      -0.25592944
Pt       4.19050322       4.03231360      24.56204206      -0.00174886      -0.00187305      -0.26842782
Pt       6.98417203       4.03231360      24.56204206      -0.00090323      -0.00231939      -0.27050552
Pt       9.77784084       4.03231360      24.56204206       0.00892661       0.00418833      -0.26110533
Pt      13.96834405       6.45170176      24.56204206      -0.00202217      -0.00201652      -0.26741481
Pt       5.58733762       6.45170176      24.56204206      -0.00172624       0.00061064      -0.26771948
Pt       8.38100643       6.45170176      24.56204206       0.00224020      -0.00165759      -0.26812470
Pt      11.17467524       6.45170176      24.56204206       0.00174835      -0.00793622      -0.25857741
Pt      15.36517846       8.87108992      24.56204206       0.00142156      -0.00051114      -0.26971954
Pt       6.98417203       8.87108992      24.56204206      -0.00042423       0.00109426      -0.26826379
Pt       9.77784084       8.87108992      24.56204206       0.00227620       0.00184425      -0.26969743
Pt      12.57150965       8.87108992      24.56204206      -0.00390319      -0.00199929      -0.27593595
Pt       0.00000000       0.00000000      26.84306310       0.00161928      -0.00250271       0.48837054
Pt       2.79366881       0.00000000      26.84306310      -0.00030802      -0.00109195       0.49171117
Pt       5.58733762       0.00000000      26.84306310       0.00343037       0.00214044       0.49187598
Pt       8.38100643       0.00000000      26.84306310      -0.01312060      -0.01363533       0.49634507
Pt       1.39683441       2.41938816      26.84306310      -0.00294931      -0.00277499       0.49163198
Pt       4.19050322       2.41938816      26.84306310      -0.00001183      -0.00028591       0.49305356
Pt       6.98417203       2.41938816      26.84306310       0.00207334      -0.00309689       0.49131677
Pt       9.77784084       2.41938816      26.84306310       0.00268063       0.00409937       0.49355030
Pt      13.96834405       4.83877632      26.84306310      -0.00011647       0.00021649       0.49461472
Pt       5.58733762       4.83877632      26.84306310       0.00140768       0.00153932       0.49243033
Pt       8.38100643       4.83877632      26.84306310      -0.00073148       0.00093511       0.49545369
Pt      11.17467524       4.83877632      26.84306310      -0.00069857       0.00012547       0.47991803
Pt       4.19050322       7.25816448      26.84306310       0.00231451       0.00585466       0.49085346
Pt       6.98417203       7.25816448      26.84306310      -0.00195532       0.00037075       0.49261105
Pt       9.77784084       7.25816448      26.84306310      -0.00256956      -0.00047025       0.49432316
Pt      12.57150965       7.25816448      26.84306310       0.00264644       0.00169461       0.49453759
H        0.00000000       0.00000000      28.39300000       0.01033635       0.00072737       0.18273963
H        2.79366881       0.00000000      28.39300000       0.00003857       0.00022240       0.19646469
H        5.58733762       0.00000000      28.39300000       0.00073122      -0.00040906       0.19669172
H        8.38100643       0.00000000      28.39300000      -0.03909774      -0.01346435       0.01960852
H        1.39683441       2.41938816      28.39300000       0.00040495      -0.00171750       0.19355652
H        4.19050322       2.41938816      28.39300000      -0.00049108      -0.00054996       0.18839966
H        6.98417203       2.41938816      28.39300000       0.00088137      -0.00098473       0.19141865
H        9.77784084       2.41938816      28.39300000       0.00150075       0.00458659       0.17028674
H       13.96834405       4.83877632      28.39300000       0.00105775      -0.00043015       0.18622912
H        5.58733762       4.83877632      28.39300000      -0.00026791      -0.00032216       0.18738510
H        8.38100643       4.83877632      28.39300000      -0.00100479      -0.00006119       0.18840608
H       11.17467524       4.83877632      28.39300000       0.00026277       0.00011030       0.18944404
H        4.19050322       7.25816448      28.39300000       0.00018795      -0.00252842       0.19308986
H        6.98417203       7.25816448      28.39300000       0.00085926       0.00050985       0.19132224
H        9.77784084       7.25816448      28.39300000      -0.00055793       0.00156452       0.19408436
H       12.57150965       7.25816448      28.39300000      -0.00014321       0.00189927       0.19086739
H        0.00000000       0.00000000      18.45000000       0.00006659      -0.00159846      -0.20311177
H        2.79366881       0.00000000      18.45000000      -0.00091608      -0.00120765      -0.19458984
H        5.58733762       0.00000000      18.45000000      -0.03179452      -0.08468957       0.00358720
H        8.38100643       0.00000000      18.45000000       0.05941409       0.00087546       0.07360914
H        1.39683441       2.41938816      18.45000000      -0.00092791       0.00065666      -0.19499505
H        4.19050322       2.41938816      18.45000000      -0.09097669       0.05485860      -0.04720237
H        6.98417203       2.41938816      18.45000000       0.07930157       0.06540270       0.02301138
H        9.77784084       2.41938816      18.45000000       0.00040341       0.00032807      -0.20264049
H       13.96834405       4.83877632      18.45000000      -0.00070423       0.00084744      -0.19910058
H        5.58733762       4.83877632      18.45000000       0.00050291      -0.00031985      -0.19541542
H        8.38100643       4.83877632      18.45000000       0.00016969      -0.00056616      -0.19058304
H       11.17467524       4.83877632      18.45000000       0.00020260      -0.00040392      -0.18899770
H        4.19050322       7.25816448      18.45000000       0.00061269       0.00101327      -0.20197971
H        6.98417203       7.25816448      18.45000000      -0.00191573       0.00089500      -0.19265817
H        9.77784084       7.25816448      18.45000000      -0.00015401      -0.00036407      -0.19220437
H       12.57150965       7.25816448      18.45000000       0.00191393      -0.00533967      -0.18608721
H        9.02914327       7.45704776      13.59870160       0.20212857      -0.22470517       0.31732506
H        8.68419985       7.83642678      13.06907974      -0.20747288       0.22479774      -0.31122151
H        0.76218309       0.87158022      32.78403309       0.21999209      -0.23806643       0.32773316
H       11.59191491       1.25095923      32.25441123      -0.21969359       0.23183331      -0.34346032
H        5.14883616       7.49517789      14.78695612       0.37110868      -0.28592366       0.02212280
H       15.72970280       7.93172383      14.77170135      -0.37131259       0.25981307       0.00218724
H        2.37928623       2.13947748      36.36794657       0.34670609      -0.25519049       0.00767989
H        1.78547763       2.57602342      36.35269181      -0.34735605       0.25363395      -0.01335920
H       10.77531778       7.33612778       8.78389599       0.35412371      -0.24002664      -0.00513809
H       10.16724617       7.75266213       8.79661487      -0.35132688       0.24260700       0.00990543
H        7.71734481       0.99144254      33.83125625       0.37288353      -0.25527945      -0.01597349
H        7.10927321       1.40797689      33.84397513      -0.36758834       0.24927311       0.00288632
H        4.27109374       7.11951923       1.01219122       0.48921824      -0.10575668       0.98189026
H       14.78437508       7.39688467       1.18260317       0.29354829      -0.01085417       1.07738435
H        8.57641991       2.57681761      38.58673332       0.37161314      -0.11247883      -0.10081734
H        7.91502601       2.85418305      38.75714528      -0.32806739       0.17836155       0.08268334
H        5.99876321       1.54819791      16.86850872       0.24181613      -0.01848675      -0.41749191
H        5.32377852       1.74961672      17.08585599      -0.34398124       0.10918885      -0.18430801
H        4.67235061       6.61991985      34.96187355       0.39259359      -0.11579247      -0.12760541
H        3.99736591       6.82133865      35.17922082      -0.39425197       0.11875361       0.12705751
H       13.54883333       9.54237956      16.36715679       0.34616384      -0.10136421      -0.32694948
H       12.90266598       9.67204562      16.69741151      -0.30860260      -0.02870097       0.01644992
H       13.67875924       9.62186774      44.89471742       0.34015697      -0.04313077      -0.19947957
H        7.44525427       0.07398116      45.22497213      -0.36641565       0.09717305       0.17126352
H        7.76835642       0.75237025      10.79710547       0.08198348       0.38410279      -0.17269279
H        7.62828152       0.09266759      11.09473801      -0.08371461      -0.38745010       0.17451930
H       14.57791388       7.71140257      46.18429561      -0.33954352       0.09643052      -0.97201616
H       14.43783898       7.05169990      46.48192815      -0.40849537      -0.02803454      -1.05532587
H        1.05770285       0.06227477       2.36668307      -0.10549469       0.21391118      -0.05330180
H        6.78079978       9.01530966       2.37424257       0.06475864      -0.45645234      -0.02261183
H        5.75930655       2.16783314      40.08088817      -0.10130996       0.40172231       0.01351346
H        5.89506585       1.44331539      40.08844766       0.06014582      -0.40949064       0.00968483
H       12.32028391       2.43598234       3.24085074      -0.14106539       0.38641885       0.18368348
H        1.42093515       1.83235019       2.91954517       0.17242436      -0.14950348      -0.11242021
H        8.93009377       0.82013652      30.65044489      -0.16323498       0.38020501       0.28506568
H        9.20542025       0.21650437      30.32913932       0.19478473      -0.35959297      -0.09400905
H        4.74223211       5.25418833       7.94799281      -0.11153755       0.14688148       0.38020447
H        4.93740873       4.99800375       7.28490212       0.11159540      -0.14679638      -0.38027185
H        9.45360091       8.92236646      32.58358960      -0.12403337       0.16438837       0.40531284
H        9.64877753       8.66618188      31.92049891       0.11960593      -0.15602560      -0.42924210
H        2.80651730       4.44555004      14.51509155       0.09355268       0.02008932       0.45153230
H        2.65814435       4.42041271      13.79344946      -0.08832357      -0.01347490      -0.43192917
H        8.81760142       8.01262371      42.92452942       0.08635899       0.01483218       0.41396075
H        8.66922847       7.98748638      42.20288734      -0.08493589      -0.01367621      -0.41515812
H       10.18895939       1.03965090      15.46062676       0.14925332      -0.00163599       0.45000789
H        9.96956148       1.07031388      14.75753498      -0.13107151       0.03361126      -0.42678258
H       13.50768479       9.56645641      38.82707971       0.12117945      -0.04869053       0.38413313
H       13.28828688       9.59711940      38.12398793      -0.12405240      -0.01138407      -0.39490658
144
Lattice="11.174675241468789 0.0 0.0 5.587337620734394 9.677552638152974 0.0 0.0 0.0 46.84306309572773" Properties=species:S:1:pos:R:3:forces:R:3 energy=38.83004956023356 pbc="T T T"
Pt       5.59308225       9.67041537      20.01958942      -0.13028912      -0.21145397      -1.62567544
Pt       2.80049081       0.00750542      20.00757802       0.02629262      -0.19307238      -0.74059707
Pt       5.59422542       0.03116534      20.00635180       0.04368382      -0.32674327       0.93915981
Pt      13.96903669       9.67150919      19.97762211      -0.06547623      -0.03771963      -0.61750960
Pt       1.39871685       2.41908180      19.98555896      -0.15946394      -0.19141839      -0.79826921
Pt       4.18582285       2.41586731      20.01913874      -0.03147211       0.12038241      -0.25314108
Pt       6.98627373       2.44333585      20.01108501       0.13624328      -0.22262439       0.16173294
Pt       9.78619570       2.39876116      19.99804377       0.03849070       0.27678210      -1.29805005
Pt      13.95649375       4.83140691      20.02175711       0.31654552       0.13684286      -0.81256300
Pt       5.60309635       4.84590260      19.99206877      -0.31387207      -0.06819440      -0.83775318
Pt       8.37529589       4.85383200      20.00891347       0.23829551      -0.20139736      -1.88455474
Pt      11.21034584       4.82425879      20.01274713      -0.45513389       0.25101450      -0.85238349
Pt      15.35466673       7.25707012      20.01919559       0.24352463       0.12609591      -0.72540492
Pt       6.99615235       7.24568488      20.02108022      -0.18564755       0.29555503      -1.57055640
Pt       9.78501512       7.25744998      20.01771583      -0.03581393       0.02660218      -0.88419271
Pt      12.56717642       7.25139631      19.99886153       0.05837948       0.05923539      -0.74339235
Pt       1.37421905       0.80947138      22.26105328       0.22659083      -0.01578915       0.45553061
Pt       4.20009560       0.79027161      22.27313692      -0.18486002       0.09991462       0.49919412
Pt       6.97416811       0.80250791      22.28930132       0.18939082      -0.04072988       0.19309860
Pt       9.76392818       0.81232554      22.27842333      -0.02776534      -0.13629754       0.23602703
Pt       2.78203909       3.20344790      22.27129073       0.04542780       0.08123144       0.36482647
Pt       5.59480412       3.21625272      22.26963822      -0.20995758       0.18162505       0.58703738
Pt       8.36031605       3.22229426      22.25662700       0.23834643       0.08883856       0.50631583
Pt      11.15207207       3.22921121      22.26430767       0.14587283      -0.05030749       0.51104122
Pt       4.18155663       5.64866476      22.27887276       0.13390666      -0.19046323       0.38571000
Pt       6.97873654       5.64499424      22.28852022      -0.04752788      -0.05981338       0.07753085
Pt       9.76699864       5.64121074      22.26847592       0.15286495      -0.01290514       0.61376196
Pt      12.56819101       5.62738363      22.29591122      -0.09760526       0.05296936       0.18066911
Pt       5.60197016       8.06577127      22.27629286      -0.13793583      -0.00445958       0.56834936
Pt       8.39055439       8.04641029      22.29033383      -0.05457964       0.16812702       0.20475702
Pt      11.17994116       8.05896459      22.26356330       0.02373051      -0.06417371       0.48935732
Pt      13.96071003       8.04909481      22.28964883       0.03506574       0.21790512       0.05892866
Pt      11.17319023       1.61476155      24.55802557      -0.00309561      -0.12775941      -0.31441817
Pt       2.79150198       1.59389954      24.55852608      -0.06215925       0.22463113      -0.32761127
Pt       5.58841910       1.61815854      24.57369551       0.05186404      -0.03378327      -0.50752246
Pt       8.38295375       1.62568992      24.55046520       0.03746715      -0.09440012      -0.06346383
Pt      12.56519409       4.02938893      24.56287285       0.12089586      -0.05794804      -0.31294468
Pt       4.19310397       4.01950799      24.55823082      -0.01999984       0.11490466      -0.38103083
Pt       7.00344913       4.03350471      24.56194994      -0.08430391       0.07260230      -0.10495887
Pt       9.78750147       4.03079687      24.55995258      -0.11796223       0.12398940      -0.23254627
Pt      13.96847530       6.46424717      24.54699246       0.10358281      -0.17870197       0.05417212
Pt       5.58597968       6.44818944      24.55586684      -0.02017648      -0.03150553      -0.27312753
Pt       8.38850114       6.46758488      24.57347168       0.03669273      -0.23484227      -0.25688845
Pt      11.19217571       6.45397446      24.58178296      -0.28323713      -0.01072844      -0.68753719
Pt      15.36637888       8.84913546      24.55784233       0.09603585       0.27451852      -0.21110019
Pt       6.99865304       8.88011894      24.55947747      -0.22454192      -0.06431255      -0.25547382
Pt       9.77828020       8.86558447      24.54799183       0.12650445       0.00568677      -0.22785324
Pt      12.56797761       8.87647528      24.55884288      -0.01814196       0.06793498      -0.17236882
Pt       0.01567997       0.00684795      26.84593037      -0.22390300      -0.07912879       1.14828432
Pt       2.80729400       0.00464964      26.83454967      -0.11041886      -0.06774395       0.15854631
Pt       5.58432636       0.00771489      26.84141841      -0.08625486       0.04227408       1.08195806
Pt      13.96951679       9.67544502      26.82991429      -0.18872774      -0.04942149       1.05334783
Pt      12.56808159       2.41501980      26.84750290      -0.35857251       0.00607732       1.19366539
Pt       4.18173421       2.40688726      26.81623003       0.00742946       0.16134137       1.12759960
Pt       6.98105047       2.43836883      26.85731157       0.06317201      -0.21763104       0.57822186
Pt       9.78176968       2.42598888      26.84722838      -0.07937048      -0.02704492       0.35233089
Pt      13.97537749       4.85141766      26.82760933      -0.14476803      -0.33831504       1.20895052
Pt       5.56452270       4.83370851      26.84744692       0.25016552      -0.08147467       1.05779517
Pt       8.39443492       4.84292381      26.86987605      -0.18446176       0.31076208       0.91875964
Pt      11.18778349       4.85226398      26.83029774      -0.40039742      -0.13977778       1.58734477
Pt      15.35774547       7.26429737      26.86215555       0.20590399      -0.02911698       0.59766376
Pt       6.95904360       7.26511880      26.83515016       0.15132949      -0.09947933       0.20974316
Pt       9.76332625       7.27087077      26.86471465      -0.00070140      -0.03697478      -0.61802411
Pt      12.56215673       7.27809199      26.81944083       0.09996475      -0.59259200       1.75872266
H       16.68845016       9.66976971      28.43962712       0.10998306      -0.00222118      -0.58757812
H        2.85675046       0.03119497      28.36037317      -0.06044690      -0.01547213       0.65841383
H        5.44296100       0.07260436      28.42215333       0.15709364      -0.08810734      -0.43464991
H       13.78300053       9.47316105      28.39507083       0.14510587       0.15846764      -0.50584608
H       12.19818621       2.40831964      28.40815751       0.42769071       0.00961078      -0.59670502
H        4.19157444       2.34568195      28.39273944      -0.04426309       0.06939948      -0.26316941
H        6.86863551       2.24189589      28.40000420       0.12018006       0.15158480       0.03577125
H        9.79420962       2.38551890      28.39027674      -0.08849584       0.01376440       0.28292680
H        2.69188352       4.60373665      28.40378278       0.11955220       0.23116122      -0.56825602
H        5.59082001       4.76812841      28.43536967      -0.02983688       0.04577978      -0.48106962
H        8.34036392       5.12945502      28.43503050       0.05290662      -0.30481201      -0.47355893
H       10.99220617       4.81875441      28.43598446       0.21755648       0.01950156      -0.83060908
H        4.42372332       7.18421011      28.40264519      -0.21795860       0.04290297      -0.00518309
H        6.93106365       7.12006710      28.36301008       0.03096637       0.09614410       0.48762184
H       10.03095019       7.41796825      28.33060149       0.00551039       0.02207858       1.28558028
H       12.50949313       6.82859088      28.39585657       0.11425444       0.54915196      -0.97115201
H        5.57692426       9.48605894      18.41114779       0.01494402       0.27349418       0.82176036
H        8.40785760       9.56749242      18.44756009      -0.00866847       0.10558930       0.04796008
H        5.66081431       0.07240442      18.53145901       0.01888193      -0.06489105      -1.67281127
H       13.96808406       9.56368710      18.41494571       0.04770580       0.10643879       0.34645334
H       12.32876913       2.30579293      18.44352505       0.24395142       0.09217765       0.02775326
H        4.29525549       2.38811245      18.49208162      -0.17295761       0.06550760      -0.42430636
H        6.85750466       2.35692800      18.51235058       0.09924536       0.05428113      -0.96604580
H        9.95976677       2.53507735      18.41438784      -0.23906350      -0.16173038       0.55567944
H        2.94759541       5.03763233      18.48072282      -0.14681438      -0.15760246      -0.01771850
H        5.39762846       4.73044625      18.43583391       0.19879052       0.11405826       0.20746233
H        8.48735255       4.82654665      18.36772695      -0.19740392       0.02755194       1.16017747
H       11.01833028       4.94987350      18.46552199       0.18901312      -0.08710101       0.03010685
H        4.39889102       7.39836101      18.48141010      -0.18881670      -0.13456100      -0.05830980
H        6.88179277       7.44274241      18.41991365       0.17839113      -0.27232999       0.80807257
H        9.70078023       7.19774021      18.45573569       0.06895365       0.06932492       0.05526227
H       12.62703714       7.23557497      18.43445557      -0.05290482       0.01360062       0.07874081
H        8.83865520       7.39412101      13.50956346      -0.17984714       0.64939874      -0.58710760
H        8.68553782       7.95526434      12.99858483       0.17442031      -0.64938796       0.59270155
H        1.00790379       1.04026249      32.86923947      -0.68224585      -0.13962325      -1.05391145
H        0.58001688       0.95382451      32.21416655       0.68172038       0.13454455       1.03973341
H        5.27625380       7.42733758      14.97612564       0.50783587      -0.55172795      -0.00768888
H        4.77428076       7.95771788      14.99614396      -0.50289446       0.51554996       0.03549511
H        2.40347217       2.26904504      36.43296285      -1.21466076       0.57272512      -0.18754579
H        1.69639390       2.60276094      36.32507949       1.21369886      -0.57499462       0.18062335
H       10.63496097       7.36861960       9.06386721      -0.08215961       0.12322810      -0.03417022
H       10.22266866       7.96942443       8.87716562       0.08528530      -0.11888602       0.04077127
H        7.90444284       1.03083392      33.85529679      -0.58509517       0.18843411       0.03834312
H        7.17781392       1.26718931      33.91076964       0.59166384      -0.19522516      -0.05144881
H        4.44211410       7.30461822       1.52944411      -1.13297987      -0.26031804       0.10323185
H       14.85440371       7.13284934       1.56147784       1.18033493       0.25782177       0.02283474
H        8.67120505       2.55462745      38.93640968      -0.01606374       0.07730151      -0.02537293
H        8.09883007       3.02559919      38.82944807       0.09130065      -0.01867829      -0.00033887
H        5.82888128       1.65107807      16.63629789      -0.18928926       0.02782268      -0.12875289
H        5.18822463       1.63625496      17.03029774       0.14784436       0.00000566      -0.33596298
H        4.82808869       6.53066730      35.03970434      -1.50992334       0.91026211       0.52557313
H        4.16564408       6.92956782      35.27085154       1.50806761      -0.90683097      -0.52639127
H       13.63213931       9.57435333      16.25169381       0.08810503      -0.02474019      -0.15927985
H       12.95553361       9.60065275      16.56054048      -0.11498308      -0.05162673      -0.06957200
H       13.72555592       9.51835751      44.82445422      -0.46010050       0.28495255      -0.01505947
H        7.43787625       0.12830035      44.88527288       0.39911959      -0.11863200      -0.06259737
H        7.57729609       0.85147864      10.57981849       0.01823864       0.11571302      -0.09212366
H        7.48391261       0.27226820      11.03771595      -0.02238068      -0.12004121       0.09178248
H       14.29544265       7.74750871      45.66620046       0.00970052      -0.59957385       0.34133583
H       14.29943820       7.11974274      46.09836315       0.00821879       0.44158572      -0.38742235
H        6.52170228       9.67652843       2.46015779      -0.00444184      -0.19006702      -0.01962703
H        6.73310448       8.95738995       2.46123482      -0.02383130       0.03446436      -0.01292057
H        5.87827880       2.27657451      40.03599364      -0.00517435      -0.27610153      -0.06016871
H        5.98023035       1.56232545      39.81367033      -0.08347242       0.27693766       0.10262071
H       12.30841576       2.60081314       3.20691791       0.22692789      -0.62127191      -0.38395932
H        1.35205434       1.96445699       2.83235089      -0.20366867       0.77098364       0.41318634
H        9.01403905       0.74277836      30.84333933       0.18724163      -0.32268298      -0.26228160
H        9.29320993       0.23554570      30.34672258      -0.16794345       0.34096199       0.38569868
H        4.57259701       5.23233626       7.77530487       0.26020440      -0.22299154      -0.50725943
H        4.89738109       4.95340237       7.14121071      -0.26009384       0.22289203       0.50672460
H        9.34193773       8.67124462      32.72818643       0.04290940       0.01155171      -0.12140082
H        9.63164998       8.71216994      32.03525305      -0.04810894      -0.00255053       0.10010180
H       13.81337747       4.63260811      14.52523389      -0.08559614      -0.04342876      -0.49265221
H       13.68163988       4.56239781      13.77697324       0.09122223       0.04935387       0.51286727