144
Lattice="11.174675241468789 0.0 0.0 5.587337620734394 9.677552638152974 0.0 0.0 0.0 46.84306309572773" Properties=species:S:1:pos:R:3:forces:R:3 energy=38.646722913577065 pbc="T T T"
Pt       5.58997597       9.67373883      20.01004274      -0.05827457      -0.04887436      -0.48164248
Pt       2.79756278       0.00443759      20.00477211       0.01243591      -0.12001088      -0.96130574
Pt       5.59038992       0.01649274      20.00362441       0.08610651      -0.14195293      -1.39710641
Pt      13.96969711       9.67499733      19.98694309      -0.04323619       0.00224175       0.01226133
Pt       1.39762192       2.41943972      19.99363902      -0.10445956      -0.11039598      -0.84410274
Pt       4.18562552       2.41774673      20.01040621       0.01702713       0.04527970      -0.92509586
Pt       6.98539738       2.43246276      20.00621753      -0.00055896      -0.17107660      -1.47565675
Pt       9.78164416       2.40868961      19.99908446      -0.00845944       0.12123164      -0.55376375
Pt      13.96187772       4.83329224      20.01096157       0.18759079       0.11527439      -0.79022580
Pt       5.59550800       4.84170843      19.99575286      -0.20930402      -0.03988373      -0.88209647
Pt       8.37730846       4.84687275      20.00536780       0.06375642      -0.09532031       0.04162256
Pt      11.19359012       4.83091198      20.00685767      -0.23751107       0.15549417      -0.79386646
Pt      15.36037195       7.25834814      20.01110890       0.14556353       0.07404572      -0.75097972
Pt       6.99131859       7.25066193      20.01158670      -0.05133799       0.07719198      -0.15877515
Pt       9.78152172       7.25832225      20.00918499      -0.02856085       0.01541865      -1.17836058
Pt      12.56913640       7.25559323      19.99948891       0.02745527       0.02410409      -0.76551312
Pt       1.38496843       0.80982062      22.27111186       0.11376104      -0.03369199       0.37539190
Pt       4.19635069       0.79895670      22.27683468      -0.09085868       0.02592623       0.34822974
Pt       6.97954724       0.80436416      22.28563889       0.09085842      -0.01062946       0.17720687
Pt       9.76939121       0.81022122      22.27974064      -0.00512781      -0.08210588       0.27888116
Pt       2.78821109       3.21338865      22.27512333       0.01281078       0.04385017       0.32298768
Pt       5.59117547       3.22034396      22.27331398      -0.08659990       0.09800737       0.41720676
Pt       8.37045926       3.22438322      22.26727313       0.10540624       0.02820989       0.40874374
Pt      11.16286485       3.22698436      22.27189258       0.08195984      -0.01126452       0.40552780
Pt       4.18597850       5.64705751      22.27873614       0.08420749      -0.09346809       0.35704887
Pt       6.98127489       5.64384200      22.28545419      -0.02391100      -0.02446379       0.20899111
Pt       9.77386439       5.64397962      22.27391438       0.06892151      -0.00630537       0.48187003
Pt      12.57098736       5.63500533      22.28886805      -0.07161294       0.03064781       0.20848949
Pt       5.59590501       8.06484244      22.27799162      -0.08029736       0.01277324       0.47264799
Pt       8.38556585       8.05520711      22.28518600      -0.01363533       0.08722828       0.24287671
Pt      11.17693848       8.06196873      22.27190718       0.00999337      -0.02358267       0.33899587
Pt      13.96411066       8.05575468      22.28588937       0.02910566       0.12358831       0.16195714
Pt      11.17337394       1.61274124      24.55927193      -0.00614802      -0.04392833      -0.30629376
Pt       2.79283245       1.60258025      24.56186262      -0.02658572       0.10730243      -0.30454668
Pt       5.58672796       1.61668062      24.56846354       0.04260344      -0.02042459      -0.41811103
Pt       8.38131025       1.61958960      24.55634553       0.01871146      -0.04472126      -0.13806105
Pt      12.56882778       4.03132802      24.56334621       0.06025046      -0.03785487      -0.34768233
Pt       4.19173234       4.02547695      24.55954265      -0.00729653       0.06206978      -0.35559440
Pt       6.99454516       4.03310246      24.56287062      -0.05296139       0.01624115      -0.20588908
Pt       9.78214558       4.03195874      24.56118706      -0.05713635       0.04260653      -0.26635346
Pt      13.96852664       6.45783958      24.55343035       0.07222383      -0.08785563      -0.09286851
Pt       5.58691380       6.44941102      24.55926074      -0.02227810       0.00194247      -0.27895367
Pt       8.38539864       6.46085026      24.56821996       0.03184080      -0.10503626      -0.21374817
Pt      11.18337063       6.45313180      24.57159594      -0.15517072       0.00295728      -0.47689956
Pt      15.36677205       8.85863218      24.56140516       0.02921339       0.13668011      -0.28546420
Pt       6.99188534       8.87629334      24.56132626      -0.10242042      -0.05386230      -0.23491040
Pt       9.77898080       8.86770622      24.55460820       0.04822721       0.00880552      -0.18691896
Pt      12.56851185       8.87323904      24.56049108       0.00716129       0.04950840      -0.25585154
Pt       0.00940083       0.00306771      26.84448826      -0.11562689      -0.02484329       0.17335433
Pt       2.79963562       0.00145728      26.83855396      -0.01928508      -0.00584489       1.48370993
Pt       5.58555245       0.00457145      26.84116876      -0.01614781       0.01315711       0.70971143
Pt      13.96843663       9.67648676      26.83627440      -0.06877856       0.01060554       0.19893347
Pt      12.56876628       2.41704898      26.84425966      -0.11530139      -0.00049468       0.56692523
Pt       4.18766837       2.41253247      26.82867570      -0.02255372       0.09326035       0.52011544
Pt       6.98256304       2.42877578      26.84973400       0.01675665      -0.12187544       0.95079607
Pt       9.78066843       2.42345358      26.84400490      -0.03206603      -0.01440126       1.25377417
Pt       2.79755994       4.84445997      26.83611346      -0.05556900      -0.12819496       0.41495836
Pt       5.57555175       4.83703604      26.84517522       0.11702865      -0.03220770       0.20497839
Pt       8.38802307       4.84154275      26.85729282      -0.09073450       0.12288871       0.56162387
Pt      11.18092044       4.84498877      26.83653171      -0.11993169      -0.04259521       0.10298066
Pt      15.36243320       7.26182904      26.85349882       0.09760294      -0.02769695       0.52930635
Pt       6.97044612       7.26254584      26.83784504       0.08575761      -0.15185399       1.64360201
Pt       9.76829176       7.26511820      26.85268524       0.25949579       0.11733693       2.05040145
Pt      12.56669549       7.26714349      26.83086445       0.05440815      -0.17264162       0.45123431
H       11.10472969       0.00452375      28.37563463       0.04675089      -0.01003116       0.49152040
H        2.82544701       0.01821283      28.45127190      -0.05418343      -0.02045056      -0.79147047
H        5.53262466       0.05952109      28.40134386       0.05082274      -0.06070298      -0.02722670
H       13.85700181       9.56685265      28.36295074       0.01833428       0.02602240       0.37722379
H       12.35947947       2.41401018      28.38637379       0.16542660       0.00000489       0.09698022
H        4.20706234       2.37805846      28.37371793      -0.03623173       0.02773423       0.28164947
H        6.90029305       2.33518450      28.42541986       0.10526098       0.09839201      -0.32742000
H        9.80326961       2.40426161      28.44471509      -0.06942339       0.02294196      -0.65665412
H        2.73408787       4.68807549      28.37359811       0.04144413       0.08254913       0.26535380
H        5.58574132       4.79963115      28.37989999      -0.00900323       0.00645553       0.45656857
H        8.34768444       5.00507759      28.40779505       0.02956100      -0.13537836       0.01251099
H       11.09412940       4.82822327      28.35968431       0.02257994      -0.00379726       0.66143304
H        4.33523095       7.21598682      28.40039491      -0.12735343       0.02072027       0.10702449
H        6.96234937       7.16045899      28.46621957       0.02048424       0.15382141      -1.02543032
H        9.92316259       7.35512077      28.52044111      -0.24840432      -0.13147800      -1.50184143
H       12.51956966       7.01406294      28.35386468       0.05783980       0.14183389       0.33167619
H        5.58684383       9.57026287      18.46779391      -0.00200289       0.08310012      -0.29653642
H        8.38829439       9.61051610      18.42763787      -0.00369956       0.07304993       0.29083884
H        5.62981150       0.06389260      18.39643766      -0.07359835      -0.17652348       0.95481730
H       13.95993382       9.61654414      18.46109778       0.06111127       0.03347782      -0.37532222
H       12.43338172       2.34944760      18.43320455       0.14380027       0.06600845       0.10265953
H        4.27073790       2.38353186      18.43814957      -0.21189286       0.09691646       0.39233726
H        6.88422107       2.37173927      18.39846346       0.24067764       0.15080601       0.99391168
H        9.87743900       2.49180352      18.45305970      -0.08759261      -0.06581125      -0.19531156
H        2.91175962       4.97458686      18.45819194      -0.11816817      -0.11444341       0.02274707
H        5.44233938       4.77826547      18.42940348       0.15972054       0.06724361       0.23065805
H        8.44748324       4.82075068      18.48870329      -0.04470763       0.00534198      -0.83079958
H       11.07862042       4.91610453      18.44942248       0.11508696      -0.06328462       0.04344162
H        4.32460793       7.34211818      18.45646500      -0.12388708      -0.07385366       0.01459615
H        6.92524323       7.36147494      18.48871532       0.04406074      -0.06634244      -0.62576133
H        9.73228526       7.23046000      18.42126498       0.05063840       0.03788726       0.44476643
H       12.59881907       7.25315624      18.43300328      -0.02265888      -0.00016429       0.10980257
H        8.94654079       7.42399313      13.58001677      -0.40510562       0.66428417      -0.76054782
H        8.65820518       7.89951078      13.03240150       0.39925352      -0.66420084       0.76735920
H        0.91626780       0.94708973      32.83628534       0.36848027      -0.13833204       0.50677603
H       11.67529550       1.10447096      32.25364257      -0.36931354       0.13241902      -0.52318531
H        5.24748089       7.44435865      14.89058165      -0.84457535       0.72073478       0.01560788
H        4.65728645       7.95779616      14.89253932       0.84728450      -0.75311220       0.01101306
H        2.36108596       2.20962906      36.39355361       1.25435340      -0.81502098       0.10384198
H        1.76465694       2.59690820      36.34351398      -1.25539911       0.81290239      -0.10986273
H       10.71111792       7.33285749       8.93566066      -0.30485728       0.31386924      -0.04062755
H       10.18126328       7.87272966       8.85997449       0.30786699      -0.30986628       0.04691492
H        7.82072416       0.99445016      33.83457996      -0.47274750       0.22858317       0.02632527
H        7.13539615       1.32728319      33.88324348       0.47811031      -0.23503870      -0.03961710
H        4.33717624       7.22012751       1.23311770       1.73787355      -0.10109115       0.13176030
H       14.80942341       7.25459091       1.30698876      -1.48939514       0.06900636       0.52301306
H        8.64574275       2.57468848      38.75561108      -0.27172938       0.20521750       0.00809846
H        7.98955649       2.94791794      38.80499990       0.33704028      -0.14328477      -0.03490119
H        5.94099979       1.59383919      16.79995002      -0.72234994       0.16875026      -0.06349622
H        5.23833560       1.70539539      17.08877558       0.63489181      -0.09750292      -0.58907914
H        4.71953357       6.57693009      34.99300591       1.68599331      -0.80478853      -0.62531936
H        4.11773196       6.86466985      35.21576131      -1.68749070       0.80797184       0.62465703
H       13.60700247       9.54613276      16.34081268      -0.95725292       0.11075362       0.29413295
H       12.90427421       9.64563486      16.65956875       0.97602528      -0.21773158      -0.57775909
H       13.71759908       9.56093943      44.85748965       0.18234703      -0.00703531      -0.09136879
H        7.44629320       0.09297891      45.05264683      -0.21973678       0.09649454       0.04328941
H        7.66116837       0.82233546      10.67914928      -0.16590405      -0.94595134       0.54288465
H        7.54374504       0.15298597      11.06326062       0.16240375       0.94139975      -0.54170913
H       14.42958927       7.71445367      45.96700921      -0.02700636       0.97006679      -0.81850588
H       14.38570531       7.09221767      46.31848404      -0.17573671      -1.02082217       0.21494655
H        0.99145846       0.05927071       2.40616321       0.03856475      -0.45776543      -0.03387455
H        6.74979112       9.00088519       2.41485546      -0.07589949       0.24001224      -0.02408738
H        5.84184381       2.24600455      40.04113049       0.07888685      -0.90838009      -0.10661209
H        5.94176369       1.48668399      39.93042197      -0.15163390       0.90271056       0.14446825
H       12.31554330       2.49120858       3.20997408      -0.36982518       1.08549774       0.57631928
H        1.35785181       1.89219757       2.87935852       0.39862773      -0.87447238      -0.52257985
H        8.96993192       0.78147650      30.74342466      -0.17312576       0.36837021       0.33364153
H        9.24089410       0.22924025      30.33843235       0.19752528      -0.35380310      -0.18665516
H        4.66527167       5.24475426       7.86308874      -0.16846898       0.17388372       0.42704561
H        4.91821249       4.98438877       7.22341988       0.16860293      -0.17405470      -0.42756936
H        9.37572940       8.80264597      32.67906581       0.52613670      -0.23244934      -1.34542477
H        9.66413145       8.67353163      31.95079606      -0.53127867       0.24069411       1.31980336
H        2.70202682       4.52321525      14.50741197       0.13660479       0.05403225       0.88877749
H        2.59273201       4.48243400      13.79012215      -0.13123117      -0.04796805      -0.86910367
H        8.85288221       8.00956038      42.89068647      -0.08060152      -0.13317750      -0.72911298
H        8.76890887       7.87174046      42.13867353       0.08194749       0.13428384       0.72895718
H       10.23189898       1.06339340      15.50581492       0.04435128       0.02835387       0.09275333
H        9.97921793       0.99754593      14.80644169      -0.01834585       0.01476070      -0.07435863
H       13.45463829       9.60440390      38.87511791      -0.05327583      -0.03764584      -0.17545775
H       13.20959104       9.57821847      38.16430395       0.05981929      -0.02011863       0.15898058
144
Lattice="11.174675241468789 0.0 0.0 5.587337620734394 9.677552638152974 0.0 0.0 0.0 46.84306309572773" Properties=species:S:1:pos:R:3:forces:R:3 energy=38.56416642491527 pbc="T T T"
Pt       5.59027561       9.67329852      20.01103760      -0.06435549      -0.06605319      -0.65768492
Pt       2.79799041       0.00468470      20.00514118       0.01260766      -0.12577710      -0.92854112
Pt       5.59074868       0.01791030      20.00379052       0.09190538      -0.15546614      -1.24213088
Pt      13.96961402       9.67459904      19.98588947      -0.04600373       0.00132232      -0.04233270
Pt       1.39768565       2.41952263      19.99306777      -0.11776733      -0.12404957      -0.91717041
Pt       4.18541137       2.41765163      20.01134287       0.01944628       0.04858897      -0.91138750
Pt       6.98551971       2.43360565      20.00680656      -0.00098268      -0.18436791      -1.44039738
Pt       9.78203924       2.40768426      19.99907268      -0.00150512       0.13830350      -0.67262018
Pt      13.96130756       4.83296447      20.01203028       0.20483826       0.12132754      -0.80246758
Pt       5.59629690       4.84196130      19.99540682      -0.22959721      -0.04422092      -0.94269532
Pt       8.37706868       4.84761760      20.00578654       0.08273990      -0.10836815      -0.24422088
Pt      11.19543505       4.83025765      20.00762695      -0.26298198       0.16766191      -0.81817186
Pt      15.35987238       7.25820826      20.01210043       0.16048776       0.08299213      -0.79107964
Pt       6.99174872       7.24998173      20.01278129      -0.06415752       0.10016402      -0.37949127
Pt       9.78181697       7.25842517      20.01019825      -0.03337575       0.01284755      -1.19675374
Pt      12.56888945       7.25517703      19.99938457       0.03064755       0.02534696      -0.74610204
Pt       1.38395785       0.80996927      22.27013182       0.12317565      -0.03417022       0.38205671
Pt       4.19690639       0.79806743      22.27637615      -0.10074303       0.03346985       0.36480564
Pt       6.97909694       0.80407396      22.28613660       0.10027020      -0.01309694       0.17612675
Pt       9.76873708       0.81055274      22.27956218      -0.00599761      -0.08927154       0.27414185
Pt       2.78748408       3.21229464      22.27473191       0.01797561       0.04751759       0.32631159
Pt       5.59168825       3.21989099      22.27282179      -0.09945542       0.10652775       0.43406498
Pt       8.36947783       3.22419538      22.26613850       0.11679160       0.03416611       0.41468939
Pt      11.16177693       3.22722339      22.27116841       0.08891801      -0.01567396       0.41570038
Pt       4.18559691       5.64727111      22.27873402       0.08987986      -0.10368951       0.36084434
Pt       6.98111979       5.64401351      22.28591764      -0.02604245      -0.02913626       0.19189456
Pt       9.77340943       5.64365958      22.27335719       0.07541689      -0.00543326       0.49617514
Pt      12.57083454       5.63408708      22.28954265      -0.07535107       0.03379664       0.20643286
Pt       5.59654461       8.06493263      22.27779655      -0.08625666       0.01235312       0.48469695
Pt       8.38594567       8.05430137      22.28571361      -0.01612827       0.09545196       0.23901054
Pt      11.17720140       8.06172250      22.27108058       0.01103826      -0.02790059       0.35262322
Pt      13.96371444       8.05496688      22.28630557       0.03057685       0.13481504       0.15091786
Pt      11.17327200       1.61282859      24.55911993      -0.00578987      -0.05124055      -0.30619863
Pt       2.79266124       1.60169197      24.56168992      -0.02974947       0.11906600      -0.30595616
Pt       5.58685817       1.61692354      24.56901307       0.04375632      -0.02283346      -0.42795861
Pt       8.38133909       1.62033332      24.55569883       0.02189963      -0.05039722      -0.12722924
Pt      12.56856141       4.03127489      24.56342542       0.06540219      -0.04183237      -0.34594634
Pt       4.19188316       4.02488103      24.55934734      -0.00799562       0.06707186      -0.35732603
Pt       6.99553176       4.03319229      24.56275362      -0.05754849       0.02126071      -0.19294563
Pt       9.78267090       4.03191443      24.56105697      -0.06287865       0.04953385      -0.26129198
Pt      13.96853122       6.45838521      24.55261319       0.07651089      -0.09612405      -0.07285839
Pt       5.58684991       6.44924186      24.55907808      -0.02194488      -0.00002571      -0.27774113
Pt       8.38578503       6.46168592      24.56875588       0.03332304      -0.11773442      -0.21192551
Pt      11.18423132       6.45317948      24.57264858      -0.16867286       0.00213402      -0.49648675
Pt      15.36673264       8.85760261      24.56112153       0.03646339       0.15086566      -0.28049761
Pt       6.99269105       8.87681728      24.56119189      -0.11599302      -0.05679027      -0.23236963
Pt       9.77893310       8.86736622      24.55404654       0.05608425       0.01010058      -0.18818548
Pt      12.56837487       8.87334148      24.56048978       0.00558084       0.05310280      -0.24875244
Pt       0.01016224       0.00347268      26.84464330      -0.13184258      -0.02982763       0.31761304
Pt       2.80038649       0.00166332      26.83814861      -0.02114733      -0.00922872       1.43178630
Pt       5.58556465       0.00496355      26.84105916      -0.02230818       0.01847955       0.78785396
Pt      13.96864113       9.67641437      26.83565356      -0.07711639       0.00976094       0.25715661
Pt      12.56858071       2.41685671      26.84446690      -0.14137520      -0.00045303       0.67992651
Pt       4.18727054       2.41194749      26.82746809      -0.02181813       0.10017944       0.59052974
Pt       6.98248345       2.42971428      26.85038127       0.01801392      -0.13696294       0.98742735
Pt       9.78091755       2.42376805      26.84423884      -0.03674827      -0.01646920       1.23202205
Pt       2.79793798       4.84508109      26.83529784      -0.06368674      -0.15007685       0.53293240
Pt       5.57444054       4.83655664      26.84546091       0.13058043      -0.03665442       0.36647683
Pt       8.38868011       4.84173752      26.85861341      -0.10191828       0.14242601       0.63181907
Pt      11.18159725       4.84571244      26.83588254      -0.14248797      -0.05070833       0.28815615
Pt      15.36210549       7.26217566      26.85435567       0.11100687      -0.03178861       0.57232529
Pt       6.96923239       7.26292779      26.83754137       0.09091499      -0.16093847       1.62517178
Pt       9.76768051       7.26566279      26.85392233       0.27132520       0.12128948       1.97640824
Pt      12.56628539       7.26827154      26.82966079       0.05391424      -0.21956117       0.64949411
H       11.09991747       0.00296058      28.38344260       0.05800718      -0.00990260       0.33559018
H        2.83091985       0.01926255      28.44625096      -0.06104442      -0.02131522      -0.73043323
H        5.52556889       0.06404454      28.40572751       0.05972005      -0.06801520      -0.11013476
H       13.84950765       9.55559693      28.36414583       0.02594835       0.03408872       0.31926084
H       12.34078888       2.41358112      28.39125783       0.19567588       0.00028154      -0.02481115
H        4.20608458       2.37396568      28.37592274      -0.03809887       0.03206706       0.21720193
H        6.89634856       2.32597017      28.42793071       0.11266678       0.11059730      -0.36920580
H        9.80386699       2.40266514      28.44339481      -0.07379427       0.02401591      -0.63574463
H        2.72928541       4.67713928      28.37824235       0.04972462       0.09974441       0.14150299
H        5.58747403       4.79643665      28.38905567      -0.01205076       0.01054667       0.28274605
H        8.34533170       5.01894865      28.41260886       0.03412754      -0.15486012      -0.07286739
H       11.08576120       4.82646905      28.36776518       0.03540435      -0.00228288       0.47468635
H        4.34580648       7.21171853      28.40279594      -0.14113146       0.02451033       0.05768425
H        6.95872396       7.15422028      28.46394429       0.02458515       0.16318639      -1.00626767
H        9.93426271       7.36106995      28.51229963      -0.26162082      -0.13558406      -1.42625761
H       12.51480408       6.99174655      28.36003207       0.06899376       0.18599825       0.13244422
H        5.58644970       9.55845676      18.45980267      -0.00110197       0.10516892      -0.11994994
H        8.39050777       9.60649208      18.43043659      -0.00451074       0.07625739       0.25502235
H        5.63517711       0.06624929      18.40915520      -0.07313246      -0.16993168       0.77376920
H       13.96100483       9.61289852      18.45698789       0.06033146       0.03777748      -0.31059906
H       12.42241327       2.34512574      18.42930666       0.16166660       0.07244880       0.17510371
H        4.27589351       2.38212238      18.44089024      -0.21713199       0.09736846       0.36940250
H        6.87844605       2.37016503      18.40341226       0.24408641       0.15022957       0.93583971
H        9.88730324       2.49712418      18.44720018      -0.10365686      -0.07702871      -0.07488776
H        2.91992698       4.98237857      18.46022923      -0.12635431      -0.12107017       0.02831993
H        5.43336603       4.77338877      18.42600456       0.17519884       0.07487079       0.29749647
H        8.45303926       4.82061909      18.47510336      -0.06206129       0.00965526      -0.53563488
H       11.07102831       4.92138651      18.45019231       0.12578249      -0.06806662       0.06000415
H        4.33472031       7.34937494      18.45659730      -0.13729280      -0.08362231       0.05125572
H        6.92078664       7.37026845      18.47940500       0.05802543      -0.08814719      -0.40122041
H        9.72642666       7.22640584      18.42174427       0.05767936       0.04390853       0.45571265
H       12.60186284       7.24905151      18.43414243      -0.02531920       0.00345171       0.08903654
H        8.93471244       7.42513535      13.57032472      -0.26252741       0.45171022      -0.50706172
H        8.66058081       7.90092676      13.03184741       0.25679922      -0.45171097       0.51357687
H        0.92438003       0.95524246      32.83615434       0.53479207      -0.17158644       0.74300849
H       11.68572633       1.08851046      32.25434243      -0.53552949       0.16549009      -0.75949007
H        5.25204278       7.44225327      14.89903300      -0.72708052       0.63170803       0.01675717
H        4.67070318       7.95846881      14.90218816       0.72977579      -0.66401935       0.01000288
H        2.35957497       2.21793246      36.39565832       1.50225532      -0.95280671       0.12970497
H        1.76400471       2.59541595      36.34367603      -1.50329328       0.95058346      -0.13564962
H       10.70196325       7.33470623       8.94724323      -0.19074784       0.20570935      -0.02774735
H       10.18674646       7.88144863       8.86474622       0.19385220      -0.20175242       0.03386786
H        7.82538670       0.99715565      33.83399623      -0.25930580       0.12071819       0.01245391
H        7.14217825       1.31800544      33.88557098       0.26476195      -0.12716420      -0.02571360
H        4.34395523       7.23017611       1.26022726       1.83423364      -0.04670409       0.09327140
H       14.81666137       7.24186330       1.32711332      -1.62012982       0.02041636       0.47014913
H        8.64931504       2.57168811      38.77376655      -0.23833023       0.19247845      -0.00000386
H        7.99990964       2.95622330      38.80902542       0.30441040      -0.13138647      -0.02671608
H        5.93019297       1.59882780      16.78831657      -0.55463582       0.13230152      -0.11697441
H        5.23469294       1.70074435      17.08374386       0.47150975      -0.06784396      -0.52310026
H        4.72238653       6.57557493      35.00032450       1.97184217      -0.97689563      -0.72475570
H        4.12959215       6.86964789      35.21786687      -1.97344375       0.98008788       0.72416824
H       13.61134861       9.54654885      16.33396396      -0.94578040       0.10372654       0.28866574
H       12.90810493       9.64187419      16.65159345       0.96015775      -0.20767882      -0.56813622
H       13.71751222       9.55489297      44.85378794       0.28183895      -0.03790706      -0.11665019
H        7.44851220       0.09599123      45.03612978      -0.32115060       0.13320912       0.06585470
H        7.65244080       0.82354935      10.66919569      -0.13155898      -0.74565905       0.44077659
H        7.53632964       0.16545327      11.05838312       0.12803504       0.74126506      -0.43994382
H       14.41489249       7.71621993      45.93806675      -0.02722850       0.86858195      -0.73489285
H       14.37866243       7.09536392      46.29793231      -0.13910261      -0.93081808       0.22560944
H        0.98527601       0.05227080       2.40945442      -0.00067389      -0.27974814      -0.03391439
H        6.74650947       8.99957864       2.41903001      -0.03603710       0.06829596      -0.02130905
H        5.84734821       2.24615537      40.03876716       0.04188456      -0.62641025      -0.07436737
H        5.94643571       1.49705117      39.91894139      -0.11584981       0.62067902       0.11258990
H       12.31490135       2.49870955       3.20876243      -0.35167527       1.04180467       0.55453968
H        1.35558765       1.89869269       2.87653250       0.37987050      -0.83710474      -0.50329089
H        8.97629398       0.77528210      30.75304672      -0.20363370       0.42821831       0.38640624
H        9.24501407       0.23052143      30.34029823       0.22728631      -0.41335759      -0.24251676
H        4.65510866       5.24175863       7.85161978      -0.21382144       0.21430764       0.52090245
H        4.91562888       4.98117934       7.21820200       0.21392249      -0.21451795      -0.52124751
H        9.37255949       8.79057822      32.68301476       0.43031222      -0.16729450      -1.09561944
H        9.66011254       8.67666260      31.96227795      -0.43552718       0.17554362       1.07078564
H        2.69435420       4.53230285      14.50637392       0.14769292       0.06277246       0.95110875
H       13.75879671       4.48763903      13.79093884      -0.14232163      -0.05674605      -0.93140483