144
Lattice="11.174675241468789 0.0 0.0 5.587337620734394 9.677552638152974 0.0 0.0 0.0 46.84306309572773" Properties=species:S:1:pos:R:3:forces:R:3 energy=38.29575201846015 pbc="T T T"
Pt       5.59089759       9.67256932      20.01308252      -0.07711793      -0.10719702      -1.02543747
Pt       2.79854782       0.00522959      20.00578061       0.01490186      -0.13803688      -0.86521226
Pt       5.59142370       0.02082355      20.00408535       0.09251447      -0.18945098      -0.81053054
Pt      13.96947920       9.67385467      19.98374397      -0.05163161      -0.00587909      -0.22549759
Pt       1.39778153       2.41973244      19.99175539      -0.14055786      -0.14800994      -1.01952446
Pt       4.18518164       2.41751212      20.01305403       0.01582231       0.05731812      -0.79732460
Pt       6.98562155       2.43591371      20.00795588       0.00934519      -0.20884353      -1.28105330
Pt       9.78295130       2.40566356      19.99887521       0.01000468       0.17224850      -0.87594920
Pt      13.96024561       4.83253390      20.01410921       0.23595221       0.12990628      -0.80930907
Pt       5.59797292       4.84259883      19.99471178      -0.26703480      -0.05252404      -1.02876115
Pt       8.37662486       4.84912286      20.00669009       0.12336206      -0.13438077      -0.79047108
Pt      11.19886457       4.82899431      20.00898417      -0.30983183       0.18860406      -0.83890885
Pt      15.35896634       7.25792039      20.01375485       0.18870407       0.10334396      -0.85811812
Pt       6.99266816       7.24865210      20.01491722      -0.08944380       0.14746049      -0.74874282
Pt       9.78238042       7.25832914      20.01208708      -0.03882032       0.01228499      -1.18262577
Pt      12.56831838       7.25437856      19.99916617       0.03798728       0.02939954      -0.72814673
Pt       1.38174368       0.81016004      22.26812105       0.14469038      -0.03328988       0.39488703
Pt       4.19767179       0.79636489      22.27546715      -0.11967483       0.04816319       0.40011433
Pt       6.97802572       0.80361182      22.28685924       0.12049785      -0.01984275       0.17889275
Pt       9.76758640       0.81113548      22.27924255      -0.01082717      -0.10246875       0.26092124
Pt       2.78607996       3.21023588      22.27401605       0.02678190       0.05517382       0.33219066
Pt       5.59265178       3.21902806      22.27194619      -0.12627099       0.12400586       0.46785313
Pt       8.36742511       3.22383361      22.26397754       0.14163437       0.04549593       0.42723536
Pt      11.15954935       3.22780462      22.26951953       0.10279091      -0.02543155       0.43950209
Pt       4.18474176       5.64767958      22.27871478       0.10160100      -0.12340962       0.36677071
Pt       6.98087442       5.64426229      22.28656893      -0.03270264      -0.03756974       0.16192192
Pt       9.77229863       5.64302890      22.27224757       0.09015445      -0.00429349       0.52460688
Pt      12.57032919       5.63229395      22.29083637      -0.08077661       0.04011744       0.20138989
Pt       5.59779733       8.06519956      22.27742171      -0.09824186       0.00881066       0.50452787
Pt       8.38684268       8.05246199      22.28667921      -0.02171862       0.11277991       0.23327209
Pt      11.17783748       8.06117671      22.26939182       0.01264366      -0.03593348       0.38289154
Pt      13.96295816       8.05344248      22.28706757       0.03240876       0.15639713       0.12750281
Pt      11.17304863       1.61304155      24.55883584      -0.00401941      -0.06614909      -0.30586669
Pt       2.79235682       1.60000921      24.56121153      -0.03903604       0.14215527      -0.31008691
Pt       5.58700276       1.61741996      24.57009279       0.04799221      -0.02934503      -0.44758052
Pt       8.38139937       1.62155457      24.55438146       0.02746016      -0.06045641      -0.10744847
Pt      12.56783707       4.03111835      24.56353258       0.07645330      -0.04876740      -0.33969933
Pt       4.19215659       4.02360247      24.55896582      -0.01015560       0.07946638      -0.35907361
Pt       6.99745274       4.03321952      24.56247732      -0.06573566       0.03356061      -0.16687799
Pt       9.78363519       4.03169228      24.56075357      -0.07395265       0.06499492      -0.25223297
Pt      13.96848697       6.45951382      24.55101157       0.08486364      -0.11312572      -0.03388894
Pt       5.58670082       6.44900161      24.55845767      -0.02028164      -0.00637865      -0.27426422
Pt       8.38656688       6.46319816      24.56982577       0.03459317      -0.14315775      -0.21147712
Pt      11.18604104       6.45328293      24.57468560      -0.19615641       0.00011390      -0.53611261
Pt      15.36667485       8.85570943      24.56037720       0.05043425       0.17787357      -0.26583588
Pt       6.99430842       8.87776464      24.56074829      -0.14332384      -0.06147071      -0.22828595
Pt       9.77882230       8.86679310      24.55292064       0.07266067       0.01120718      -0.19545168
Pt      12.56821465       8.87375766      24.56047995       0.00030905       0.05860984      -0.23386319
Pt       0.01161834       0.00412607      26.84510205      -0.16384125      -0.03740390       0.58904594
Pt       2.80178207       0.00227329      26.83728645      -0.02843538      -0.02012403       1.25445473
Pt       5.58557832       0.00572202      26.84099159      -0.03949498       0.02853642       0.94980055
Pt      13.96894818       9.67632396      26.83425959      -0.09863987      -0.00014424       0.43518880
Pt      12.56830825       2.41652940      26.84487776      -0.20026350      -0.00071477       0.90331191
Pt       4.18629739       2.41071595      26.82486681      -0.01678493       0.11274417       0.73570168
Pt       6.98216321       2.43160766      26.85173143       0.02168674      -0.16541013       1.03116667
Pt       9.78119618       2.42429686      26.84468151      -0.04676477      -0.01922568       1.12151194
Pt       2.79878948       4.84633798      26.83358066      -0.08447309      -0.20166321       0.79820776
Pt       5.57220232       4.83567705      26.84599478       0.15924926      -0.04751888       0.68352115
Pt       8.38993473       4.84201679      26.86123310      -0.12455761       0.18568972       0.76766616
Pt      11.18303537       4.84720154      26.83452616      -0.19486649      -0.06990419       0.65260983
Pt      15.36131137       7.26282407      26.85594887       0.14071135      -0.03907126       0.66062576
Pt       6.96675381       7.26360949      26.83698482       0.10065433      -0.17146920       1.53280807
Pt       9.76649098       7.26664630      26.85641276       0.27960107       0.12287997       1.70901108
Pt      12.56534461       7.27052964      26.82732223       0.05582277      -0.31851059       1.01753294
H       11.09277549       0.00189242      28.39945292       0.08035572      -0.01018645       0.03904298
H        2.84116808       0.02114239      28.43107729      -0.07157258      -0.02182558      -0.53034687
H        5.50888893       0.07005786      28.41544139       0.08246480      -0.08066554      -0.28333509
H       13.83422956       9.53343280      28.36974315       0.04744945       0.05776627       0.13850071
H       12.30620471       2.41220238      28.40169473       0.25998124       0.00166350      -0.26596805
H        4.20513705       2.36420418      28.38042669      -0.04229028       0.04268314       0.08575221
H        6.88920758       2.30899676      28.43098967       0.12501091       0.13218273      -0.42125267
H        9.80274016       2.40056927      28.43587086      -0.07888737       0.02350451      -0.52172524
H        2.72029997       4.65564264      28.38997074       0.06921796       0.14148602      -0.13749644
H        5.59057420       4.78989108      28.40834618      -0.01932673       0.02040042      -0.06037619
H        8.34139205       5.04592800      28.42222645       0.04285438      -0.19574428      -0.23937564
H       11.06591349       4.82285618      28.38462831       0.06864126       0.00260916       0.10761636
H        4.36699574       7.20354329      28.40751596      -0.17050734       0.03267744      -0.04335292
H        6.95024242       7.14445637      28.45486053       0.03390386       0.17394595      -0.90950209
H        9.95661412       7.37345287      28.48474922      -0.27310055      -0.13686575      -1.14677870
H       12.50888355       6.94899303      28.37263582       0.08904528       0.28059146      -0.23802221
H        5.58593295       9.53766613      18.44118698       0.00098062       0.15437265       0.24967162
H        8.39466224       9.59756782      18.43575232      -0.00575901       0.08310217       0.18626538
H        5.64289190       0.06925447      18.43996014      -0.06194148      -0.14909469       0.28032407
H       13.96220197       9.60331468      18.44467816       0.05994965       0.05180336      -0.10127679
H       12.40111229       2.33780702      18.42396000       0.19517554       0.08309420       0.27542841
H        4.28439312       2.37852577      18.45162825      -0.21852964       0.09635364       0.23166901
H        6.87019961       2.36581812      18.41959320       0.23774144       0.14501074       0.72017556
H        9.90585175       2.50739175      18.43672733      -0.13624945      -0.09928752       0.13187549
H        2.93444577       4.99831344      18.46535672      -0.13922782      -0.13268848       0.02202304
H        5.41836931       4.76437873      18.42124503       0.20086797       0.08851049       0.39346007
H        8.46282174       4.82244951      18.44591404      -0.09945928       0.01648206       0.02870071
H       11.05586527       4.92979218      18.45332258       0.14485107      -0.07436531       0.06407781
H        4.35331280       7.36537378      18.45740556      -0.16191317      -0.10487891       0.11256419
H        6.91451737       7.38736945      18.46264355       0.08353515      -0.13152556      -0.02575191
H        9.71653831       7.21856481      18.42612201       0.06817332       0.05418472       0.42438117
H       12.60766846       7.24232923      18.43513506      -0.03127953       0.00909014       0.06902487
H        8.90853786       7.43141304      13.54667852       0.18008137      -0.35447288       0.39094785
H        8.66783164       7.89970227      13.03490323      -0.18541512       0.35440603      -0.38512841
H        0.94367771       0.97092765      32.84136406       0.41418856      -0.08532643       0.58156687
H       11.70182660       1.05703098      32.24687781      -0.41488764       0.07935710      -0.59754783
H        5.25686499       7.44183431      14.91629778      -0.22097503       0.18996726       0.01631854
H        4.70040457       7.95536968      14.92482341       0.22386391      -0.22193559       0.01106629
H        2.36717496       2.22832112      36.40263464       0.96758413      -0.58133727       0.09261217
H        1.75121408       2.59785499      36.34272862      -0.96889174       0.57901555      -0.09862213
H       10.68241820       7.34249366       8.97144225       0.12379554      -0.13863209       0.02756686
H       10.19819629       7.89780831       8.87387777      -0.12073876       0.14246792      -0.02167980
H        7.83258558       1.00730005      33.83527744       0.41373244      -0.18166645      -0.04000200
H        7.15874983       1.30123687      33.88928506      -0.40761244       0.17515744       0.02690737
H        4.36914529       7.24820684       1.31533801       0.82686275       0.01956584       0.13102934
H       14.81981852       7.21728129       1.37364280      -0.66706169      -0.03774971       0.29197064
H        8.65624852       2.56676569      38.81142944      -0.15769708       0.15307784      -0.01387547
H        8.02115379       2.97150272      38.81454859       0.22510885      -0.09353006      -0.01265600
H        5.90274515       1.60867746      16.76342714      -0.01288226       0.04505781      -0.32625091
H        5.22864385       1.69076498      17.07235382      -0.05854557       0.00417136      -0.28253856
H        4.74470132       6.56604109      35.01008187       1.06700122      -0.56309736      -0.38451880
H        4.13991256       6.88579787      35.22739229      -1.06906092       0.56603587       0.38390738
H       13.61137716       9.55067522      16.31970603      -0.39458826       0.02458463       0.04290451
H       12.92415172       9.63356743      16.63080786       0.39768463      -0.11948046      -0.31398082
H       13.71813214       9.54529136      44.84575949       0.28943861      -0.03746277      -0.11307918
H        7.44852800       0.10169710      45.00378114      -0.33403465       0.14807448       0.05492340
H        7.63545263       0.82317376      10.65371755      -0.01094879      -0.06015379       0.03716658
H        7.52166555       0.19445644      11.04653911       0.00739167       0.05598989      -0.03688017
H       14.38710702       7.72857889      45.87698955      -0.04671258       0.09839073      -0.23354463
H       14.36328787       7.09677053      46.26047395      -0.06081585      -0.18370457      -0.12813839
H        0.97306333       0.03503704       2.41804347      -0.10782307       0.16182345      -0.03603350
H        6.74229465       8.99617085       2.42776522       0.07256014      -0.36040339      -0.01385928
H        5.85848237       2.24507323      40.03667886      -0.06476275       0.17856699       0.05991545
H        5.95486212       1.52225261      39.89728952      -0.01038546      -0.18366626      -0.02170448
H       12.31243519       2.52370493       3.21026124      -0.11251431       0.37662318       0.18730591
H        1.35446316       1.90694458       2.86933868       0.13963020      -0.18514258      -0.14135489
H        8.98690605       0.76868012      30.77556652      -0.09599394       0.20851314       0.22763573
H        9.25457654       0.23043199      30.34123458       0.11813526      -0.19284612      -0.08911496
H        4.63267839       5.23962438       7.83195396      -0.13627696       0.13172843       0.31030056
H        4.91031227       4.97194933       7.20198959       0.13618825      -0.13189529      -0.30973697
H        9.36879195       8.76629992      32.68439365       0.06013913      -0.01431590      -0.16598581
H        9.65006058       8.68367478      31.99021403      -0.06549012       0.02254086       0.14290835
H        2.68103370       4.55316599      14.50986927       0.10898084       0.05602177       0.68639541
H       13.74250051       4.49762895      13.78935266      -0.10363475      -0.05007095      -0.66664547
H        8.86063987       8.01399281      42.86355730       0.01843198       0.04258133       0.17669214
H        8.78841263       7.84215154      42.14408864      -0.01715183      -0.04167013      -0.17655201
H       10.24495232       1.06344042      15.51004235       0.19749622       0.08492535       0.48654300
H        9.98326053       0.97007181      14.82879262      -0.16962494      -0.04169558      -0.46892247
H       13.43616377       9.62372704      38.87336269       0.20781946       0.01221248       0.55738151
H       13.18891436       9.57178157      38.18586269      -0.20060056      -0.06775654      -0.57459146
144
Lattice="11.174675241468789 0.0 0.0 5.587337620734394 9.677552638152974 0.0 0.0 0.0 46.84306309572773" Properties=species:S:1:pos:R:3:forces:R:3 energy=38.93806257285465 pbc="T T T"
Pt       5.59353412       9.66991392      20.02122613      -0.14459552      -0.21387543      -1.55795372
Pt       2.80083209       0.00814530      20.00794483       0.02998241      -0.20520335      -0.68425107
Pt       5.59510759       0.03412761      20.00750762       0.04263275      -0.35194293       0.96885037
Pt      13.96893114       9.67058336      19.97603027      -0.07154918      -0.02694491      -0.51948142
Pt       1.39904564       2.41874797      19.98384268      -0.15120427      -0.19610243      -0.68484396
Pt       4.18638924       2.41507156      20.02050210      -0.03984310       0.13903062      -0.26403433
Pt       6.98668749       2.44549207      20.01172342       0.16879319      -0.22463344       0.47795168
Pt       9.78728176       2.39720183      19.99746385       0.02588895       0.28497672      -1.22519946
Pt      13.95529777       4.83105456      20.02391523       0.33662659       0.13136050      -0.76897204
Pt       5.60453185       4.84721696      19.99147446      -0.30990177      -0.06922361      -0.66911602
Pt       8.37471021       4.85510812      20.00881269       0.25907004      -0.21343243      -1.93699265
Pt      11.21343408       4.82270429      20.01343804      -0.49621600       0.27423310      -0.89920098
Pt      15.35349673       7.25703309      20.02052603       0.24592270       0.12534925      -0.64457434
Pt       6.99674074       7.24499961      20.02262153      -0.19455513       0.31956783      -1.58565962
Pt       9.78561995       7.25717767      20.01916069      -0.03097717       0.02900410      -0.77642924
Pt      12.56721121       7.25047391      19.99902151       0.05720654       0.06904955      -0.68819565
Pt       1.37196710       0.80891488      22.25911034       0.25032955      -0.00703685       0.47924724
Pt       4.20064510       0.78847676      22.27231435      -0.19859794       0.11207954       0.51348662
Pt       6.97290161       0.80193489      22.28998167       0.20780402      -0.03874936       0.18626127
Pt       9.76278489       0.81260516      22.27826957      -0.03135872      -0.14545426       0.24140346
Pt       2.78106025       3.20143855      22.27026293       0.05085694       0.08563394       0.37749660
Pt       5.59500160       3.21513495      22.26896803      -0.22572719       0.19633433       0.61198330
Pt       8.35866588       3.22165961      22.25447825       0.25852752       0.10071269       0.53284782
Pt      11.15016160       3.22957986      22.26282937       0.15691470      -0.05447088       0.52784777
Pt       4.18093707       5.64862977      22.27910446       0.14124511      -0.20514628       0.38650522
Pt       6.97832789       5.64480514      22.28937184      -0.05233661      -0.06322009       0.06356822
Pt       9.76534136       5.64080141      22.26741103       0.17360064      -0.02017699       0.63867259
Pt      12.56767995       5.62616642      22.29745905      -0.10537101       0.05575155       0.17499933
Pt       5.60307501       8.06579692      22.27599335      -0.14771581      -0.00932282       0.58759737
Pt       8.39190346       8.04466905      22.29168844      -0.06738991       0.18375625       0.19245969
Pt      11.18042124       8.05835400      22.26206344       0.02698193      -0.06938714       0.50946051
Pt      13.96015270       8.04795031      22.29056195       0.03670841       0.23234445       0.04328298
Pt      11.17348423       1.61548433      24.55769218      -0.00484370      -0.14527300      -0.31832728
Pt       2.79110295       1.59212745      24.55749201      -0.06230143       0.24652100      -0.33573699
Pt       5.58895227       1.61800262      24.57453345       0.05146578      -0.02743984      -0.52226722
Pt       8.38391296       1.62685125      24.54927899       0.03315978      -0.10248238      -0.05205713
Pt      12.56446663       4.02869651      24.56246876       0.13867426      -0.05973907      -0.31568342
Pt       4.19333442       4.01840631      24.55820937      -0.02278358       0.12156125      -0.39552593
Pt       7.00492152       4.03364075      24.56195272      -0.08859996       0.07893776      -0.09834214
Pt       9.78865127       4.03053170      24.55986334      -0.13199788       0.13792761      -0.23671687
Pt      13.96863496       6.46575088      24.54592441       0.10823934      -0.19825855       0.06994404
Pt       5.58571902       6.44786210      24.55504497      -0.02166386      -0.03453763      -0.26714870
Pt       8.38916069       6.46869959      24.57439485       0.03681332      -0.25825140      -0.26735491
Pt      11.19397108       6.45416367      24.58369578      -0.30845040      -0.00807095      -0.73488951
Pt      15.36616499       8.84764762      24.55711840       0.10970770       0.29499426      -0.19566843
Pt       6.99974591       8.88070292      24.55901644      -0.24505931      -0.06596886      -0.26405334
Pt       9.77827461       8.86560038      24.54656060       0.13760211      -0.00035044      -0.22849832
Pt      12.56775652       8.87737269      24.55810493      -0.01820521       0.07207497      -0.16232121
Pt       0.01659689       0.00771644      26.84653746      -0.22441593      -0.09041593       1.10195327
Pt       2.80900361       0.00543894      26.83373667      -0.13894448      -0.08187524      -0.07837649
Pt       5.58375025       0.00836597      26.84139181      -0.08367836       0.03974180       0.99649334
Pt      13.96943263       9.67546116      26.82894963      -0.19588850      -0.04891087       1.08104360
Pt      12.56817166       2.41470840      26.84862403      -0.36053246       0.01169286       1.09452534
Pt       4.18028853       2.40593174      26.81394537       0.00897135       0.17940851       1.14440894
Pt       6.98076610       2.44027543      26.85898537       0.08536346      -0.20879133       0.33019394
Pt       9.78198562       2.42651285      26.84793116      -0.08452863      -0.02794815       0.16506612
Pt      13.97586013       4.85295674      26.82599235      -0.15695995      -0.35287470       1.15784574
Pt       5.56244330       4.83309121      26.84787285       0.27266166      -0.08622427       0.97505599
Pt       8.39607690       4.84331609      26.87227438      -0.20068671       0.31755596       0.81406224
Pt      11.18908526       4.85356955      26.82922471      -0.43334481      -0.15005654       1.58694828
Pt      15.35663768       7.26422651      26.86430719       0.21762231      -0.01808386       0.55087918
Pt       6.95692006       7.26555856      26.83484965       0.17011552      -0.05481670      -0.31383735
Pt       9.76246302       7.27209453      26.86657094      -0.12892900      -0.10896799      -1.24055099
Pt      12.56121825       7.28016295      26.81746868       0.12881382      -0.61688715       1.73760617
H       16.69503218       9.66758871      28.43787876       0.10130507      -0.00075230      -0.54861379
H        2.85831339       0.03871679      28.34753800      -0.05525687      -0.01362633       0.91352022
H        5.42943509       0.07108337      28.41552187       0.16380937      -0.08119493      -0.34663025
H       13.77341538       9.46250031      28.39428318       0.15812285       0.17047933      -0.53435963
H       12.17663817       2.41138734      28.39742143       0.42963755       0.00801670      -0.49929824
H        4.18249600       2.34460815      28.39089858      -0.03753682       0.07021092      -0.26562250
H        6.86446040       2.22533461      28.38490738       0.10559444       0.13148572       0.28822428
H        9.79390934       2.38145312      28.38096187      -0.09209049       0.00925057       0.47728086
H        2.68206387       4.59519080      28.39624421       0.12699270       0.22976562      -0.51201957
H        5.58922600       4.75785471      28.43007076      -0.02849220       0.05235821      -0.39823434
H        8.33830331       5.14869989      28.42792608       0.05352446      -0.30701289      -0.38078222
H       10.97647355       4.82245812      28.43226535       0.23418278       0.01522582      -0.81526756
H        4.43249231       7.18014429      28.40100645      -0.21992549       0.04318605       0.03110521
H        6.93189266       7.11581596      28.33626637       0.02006026       0.04794157       1.03321409
H       10.05163530       7.43463182      28.30003402       0.13566144       0.09379873       1.93110430
H       12.51620872       6.80157149      28.38387152       0.10442845       0.57102537      -0.93222243
H        5.57216791       9.47946011      18.42017702       0.02022558       0.27530810       0.73084182
H        8.40956838       9.56276074      18.45180471      -0.00839491       0.10532756      -0.01306763
H        5.66525307       0.06961770      18.53440138       0.02393800      -0.06166714      -1.73046899
H       13.96937725       9.55778081      18.41900117       0.04217381       0.10589912       0.24403860
H       12.31214041       2.29782881      18.45209603       0.24200048       0.08821919      -0.09504443
H        4.29122478       2.39432762      18.49299990      -0.16522090       0.05854402      -0.43705699
H        6.85731880       2.35361089      18.52833058       0.06291027       0.02927407      -1.33523285
H        9.97165961       2.53641914      18.42080490      -0.24714783      -0.15775287       0.47258270
H        2.94744225       5.04499283      18.48718339      -0.14020663      -0.15497711      -0.07500423
H        5.39747081       4.71940778      18.44701769       0.17647719       0.11352373       0.03340455
H        8.49163503       4.82871682      18.36307606      -0.20827968       0.02482169       1.21049035
H       11.01443645       4.95559733      18.46504771       0.20071499      -0.09564762       0.07028162
H        4.40310815       7.41116189      18.48983758      -0.18158418      -0.14005828      -0.14991616
H        6.87711133       7.45573492      18.42241730       0.18743575      -0.29046938       0.81621325
H        9.69721564       7.18722351      18.46505766       0.06520601       0.07434088      -0.07201763
H       12.63254820       7.23585419      18.43827047      -0.05578086       0.01236135       0.01843507
H        8.82080376       7.37974596      13.49694568      -0.24414451       1.10955894      -0.95463347
H        8.69175446       7.97255072      12.98456724       0.23878506      -1.10965765       0.96045882
H        1.00954590       1.05821967      32.85989958      -0.29690227      -0.10108139      -0.48030370
H        0.60746125       0.92501391      32.22265309       0.29609674       0.09603766       0.46636754
H        5.29362946       7.41540733      14.99115001      -0.25253558       0.25866303       0.02562362
H        4.77991927       7.97397015      15.01714746       0.25854680      -0.29942042       0.00281382
H        2.39459569       2.29021718      36.43905712      -0.62370056       0.26973727      -0.10941202
H        1.69883408       2.59178841      36.31964574       0.62297630      -0.27211168       0.10267162
H       10.62657543       7.37458377       9.08573728      -0.23693463       0.36765543      -0.11935525
H       10.22735428       7.98808931       8.87880283       0.24024081      -0.36346430       0.12661090
H        7.92704054       1.04006685      33.86113772      -1.02062678       0.30551857       0.07173558
H        7.18194655       1.26449466      33.91807249       1.02685857      -0.31222451      -0.08490272
H        4.44067487       7.31879262       1.59406937      -0.25022569      -0.07247118       0.04075585
H       14.88938030       7.11293372       1.61725113       0.27909714       0.07296431       0.03425790
H        8.67649608       2.54918699      38.97008285      -0.34044570       0.37328461      -0.11046848
H        8.11812679       3.04775842      38.83115683       0.41859773      -0.31447011       0.08428103
H        5.81405247       1.65864237      16.59066614      -0.70162249      -0.01369267       0.23176338
H        5.17022020       1.61586434      17.01153029       0.66109496       0.04455131      -0.65982252
H        4.82439718       6.53981588      35.05889754      -0.47838336       0.29688376       0.16535640
H        4.20109282       6.92548542      35.27624007       0.47672087      -0.29391980      -0.16632031
H       13.65349276       9.58254428      16.22461722      -0.87750858      -0.01304475       0.29049122
H       12.94898435       9.59005761      16.54610240       0.84779382      -0.06438120      -0.50175238
H       13.72048580       9.51416844      44.82267841      -0.27273440       0.21959332      -0.04405946
H        7.43982056       0.13121930      44.84644737       0.20959094      -0.04204088      -0.03536064
H        7.56579338       0.87137398      10.54871011      -0.10180669      -0.63759607       0.53579479
H        7.47263373       0.28489431      11.04227655       0.09727152       0.63274497      -0.53595215
H       14.26705899       7.73746892      45.61320566       0.00735387       0.20411681      -0.20582557
H       14.28328043       7.13825959      46.04034296       0.03055859      -0.37616298       0.21191522
H        6.51435390       9.66898347       2.47766861       0.07775685      -0.43857136      -0.01871480
H        6.73502244       8.94484973       2.47267117      -0.10324728       0.29941809      -0.00870884
H        5.87944837       2.28853589      40.03657501       0.06909043      -0.78415799      -0.24589853
H        5.98556450       1.56711948      39.78646067      -0.16307764       0.78658819       0.28981015
H       12.31001137       2.60474764       3.19823877      -0.10705534       0.33172014       0.18358347
H        1.35292078       2.00122678       2.83331862       0.12780698      -0.19808988      -0.15897338
H        9.02587083       0.72846914      30.85211223      -0.03524366       0.08106457       0.13223030
H        9.29924754       0.24076810      30.35823277       0.05456704      -0.06271975      -0.01557472
H        4.56449531       5.22636216       7.75891959       0.16846178      -0.13874651      -0.32283700
H        4.89161391       4.95606917       7.13005253      -0.16841473       0.13868943       0.32278609
H        9.32693691       8.64208580      32.75430174       0.53150851       0.14664134      -1.26575851
H        9.63535041       8.72354251      32.03071700      -0.53636175      -0.13743216       1.24349892
H       13.79974927       4.65300570      14.51976251      -0.00758861      -0.00196792      -0.05008458
H       13.67003617       4.58279397      13.78405483       0.01333554       0.00793854       0.06993530