4
Lattice="2.653985369848837 0.0 0.0 1.326992684924419 2.298418751561331 0.0 0.0 0.0 24.562042063818488" Properties=species:S:1:pos:R:3:forces:R:3 energy=2.69079573873843 pbc="T T F"
Pt       1.32699268       0.76613958      10.00000000       0.01264057       0.00448683      -1.28196108
Pt       2.65398537       1.53227917      12.28102103      -0.02809779      -0.13615741      -0.87055093
Pt       3.91269463       2.27301673      14.48204206       0.17873000      -0.13074009       4.12848520
H        0.91992759       0.99637260      16.13702805      -0.16327304       0.26241067      -1.97597313
4
Lattice="2.653985369848837 0.0 0.0 1.326992684924419 2.298418751561331 0.0 0.0 0.0 24.562042063818488" Properties=species:S:1:pos:R:3:forces:R:3 energy=3.7417194759282353 pbc="T T F"
Pt       1.32699268       0.76613958      10.00000000       0.06048264       0.06787867      -1.25709140
Pt       2.65398537       1.53227917      12.28102103      -0.34729153      -0.27681014      -0.68852526
Pt       3.80027565       2.13226508      14.51497548       0.28144327       0.54455686       3.28411078
H        2.60178427       0.98969308      16.78367370       0.00536538      -0.33562514      -1.33849406
4
Lattice="2.653985369848837 0.0 0.0 1.326992684924419 2.298418751561331 0.0 0.0 0.0 24.562042063818488" Properties=species:S:1:pos:R:3:forces:R:3 energy=1.9338266750101099 pbc="T T F"
Pt       1.32699268       0.76613958      10.00000000      -0.00763926       0.00083947      -1.41263902
Pt       2.65398537       1.53227917      12.28102103      -0.06982988      -0.01154297      -0.53896165
Pt       2.60303034       0.00473892      14.53684219      -0.08049842       0.00635448       1.52485299
H        1.07766136       0.83992193      15.56204206       0.15796730       0.00434902       0.42674762
4
Lattice="2.653985369848837 0.0 0.0 1.326992684924419 2.298418751561331 0.0 0.0 0.0 24.562042063818488" Properties=species:S:1:pos:R:3:forces:R:3 energy=1.990443433544911 pbc="T T F"
Pt       1.32699268       0.76613958      10.00000000      -0.03676652       0.02891180      -1.37521398
Pt       2.65398537       1.53227917      12.28102103      -0.04912659      -0.23713183      -1.15396523
Pt       1.32664586       2.12624422      14.48204206      -0.05267137       0.18728302       1.28208768
H        1.93967849       2.28347703      15.86204206       0.13856447       0.02093701       1.24709153
4
Lattice="2.653985369848837 0.0 0.0 1.326992684924419 2.298418751561331 0.0 0.0 0.0 24.562042063818488" Properties=species:S:1:pos:R:3:forces:R:3 energy=1.8193129982692113 pbc="T T F"
Pt       1.32699268       0.76613958      10.00000000       0.02112110       0.00802519      -1.36877108
Pt       2.65398537       1.53227917      12.28102103      -0.12934913      -0.03532748       0.26473367
Pt       3.83144245       2.23708066      14.63119609       0.07803119      -0.01776581       0.98041934
H        2.88122380       1.79873524      15.86204206       0.03019684       0.04506810       0.12361788
4
Lattice="2.653985369848837 0.0 0.0 1.326992684924419 2.298418751561331 0.0 0.0 0.0 24.562042063818488" Properties=species:S:1:pos:R:3:forces:R:3 energy=3.6720740417140547 pbc="T T F"
Pt       1.32699268       0.76613958      10.00000000       0.04385582       0.02725961      -1.26682508
Pt       2.65398537       1.53227917      12.28102103      -0.17355797      -0.10915259       0.19315183
Pt       3.84427148       2.20219936      14.59173844       0.21191239      -0.01065388       2.46447659
H        1.32038776       2.06512663      17.14632983      -0.08221000       0.09254687      -1.39080369
4
Lattice="2.653985369848837 0.0 0.0 1.326992684924419 2.298418751561331 0.0 0.0 0.0 24.562042063818488" Properties=species:S:1:pos:R:3:forces:R:3 energy=4.22560363887807 pbc="T T F"
Pt       1.32699268       0.76613958      10.00000000      -0.06054229       0.03034468      -1.30282879
Pt       2.65398537       1.53227917      12.28102103       0.24762271      -0.12917815      -0.58213663
Pt       1.47773474       2.22735918      14.51694977      -0.14661717       0.10298066       2.30006337
H        1.13164303       0.80967835      17.36204206      -0.04046325      -0.00414745      -0.41509795
4
Lattice="2.653985369848837 0.0 0.0 1.326992684924419 2.298418751561331 0.0 0.0 0.0 24.562042063818488" Properties=species:S:1:pos:R:3:forces:R:3 energy=4.4814690383855265 pbc="T T F"
Pt       1.32699268       0.76613958      10.00000000       0.01707264       0.03512384      -1.36189163
Pt       2.65398537       1.53227917      12.28102103      -0.08608260      -0.14215580      -0.78797245
Pt       1.28560690       2.20789138      14.48948137       0.06897139       0.10691857       2.16882896
H        2.41419772       0.92503085      20.01203425       0.00003882       0.00011339      -0.01896523
4
Lattice="2.653985369848837 0.0 0.0 1.326992684924419 2.298418751561331 0.0 0.0 0.0 24.562042063818488" Properties=species:S:1:pos:R:3:forces:R:3 energy=5.355392776254135 pbc="T T F"
Pt       1.32699268       0.76613958      10.00000000      -0.03617954      -0.07128204      -1.52770543
Pt       2.65398537       1.53227917      12.28102103      -0.13145924       0.28403983      -1.31295478
Pt       2.56359863       0.19118467      14.50990389     -12.97518635      -7.70762587      -5.10795021
H        0.87546826       0.74031489      14.96204206      13.14282513       7.49486780       7.94861078
4
Lattice="2.653985369848837 0.0 0.0 1.326992684924419 2.298418751561331 0.0 0.0 0.0 24.562042063818488" Properties=species:S:1:pos:R:3:forces:R:3 energy=3.395065122983411 pbc="T T F"
Pt       1.32699268       0.76613958      10.00000000       0.01415290      -0.02710406      -1.44245768
Pt       2.65398537       1.53227917      12.28102103      -0.06981806       0.24660327      -1.77867723
Pt       2.59212091       0.11516114      14.48204206      -0.95554286       1.69090080      -0.30432454
H        2.55444107       1.89024351      14.96204206       1.01120770      -1.91040003       3.52545929
4
Lattice="2.653985369848837 0.0 0.0 1.326992684924419 2.298418751561331 0.0 0.0 0.0 24.562042063818488" Properties=species:S:1:pos:R:3:forces:R:3 energy=4.147672065440034 pbc="T T F"
Pt       1.32699268       0.76613958      10.00000000      -0.00950794       0.01813013      -1.43868637
Pt       2.65398537       1.53227917      12.28102103       0.06025535      -0.05922280       0.34102651
Pt       1.40345925       2.14049669      14.71597764      -0.40052596      -7.31817484      -2.22009754
H        2.56632967       1.12227654      14.96204206       0.34977856       7.35926723       3.31775737
4
Lattice="2.653985369848837 0.0 0.0 1.326992684924419 2.298418751561331 0.0 0.0 0.0 24.562042063818488" Properties=species:S:1:pos:R:3:forces:R:3 energy=2.354897774662291 pbc="T T F"
Pt       1.32699268       0.76613958      10.00000000      -0.02409818      -0.02054672      -1.31269455
Pt       2.65398537       1.53227917      12.28102103       0.07955071       0.09697457       0.69998777
Pt       0.12292815       0.09756581      14.67572250      -0.00910942      -0.19461839       2.50731158
H        2.76645297       1.71938412      16.22901701      -0.04634311       0.11819053      -1.89460444
4
Lattice="2.653985369848837 0.0 0.0 1.326992684924419 2.298418751561331 0.0 0.0 0.0 24.562042063818488" Properties=species:S:1:pos:R:3:forces:R:3 energy=2.95371657449779 pbc="T T F"
Pt       1.32699268       0.76613958      10.00000000       0.06070606      -0.04022800      -1.24480176
Pt       2.65398537       1.53227917      12.28102103      -0.15456419       0.15359515      -0.50532335
Pt       2.49025419       0.12774256      14.51872822       0.16135037      -0.45297801       4.18059015
H        3.86310097       2.16958306      16.64779635      -0.06749223       0.33961087      -2.43046498
4
Lattice="2.653985369848837 0.0 0.0 1.326992684924419 2.298418751561331 0.0 0.0 0.0 24.562042063818488" Properties=species:S:1:pos:R:3:forces:R:3 energy=3.5035212730281415 pbc="T T F"
Pt       1.32699268       0.76613958      10.00000000       0.01981421       0.02611855      -1.26700556
Pt       2.65398537       1.53227917      12.28102103      -0.04352235      -0.05026121       0.94124931
Pt       3.91321930       2.20634711      14.68659287       0.29242933       0.14786698       1.86491585
H        0.30994176       0.08203949      17.14243008      -0.26872119      -0.12372432      -1.53915989
4
Lattice="2.653985369848837 0.0 0.0 1.326992684924419 2.298418751561331 0.0 0.0 0.0 24.562042063818488" Properties=species:S:1:pos:R:3:forces:R:3 energy=4.351702291199231 pbc="T T F"
Pt       1.32699268       0.76613958      10.00000000      -0.03903938       0.01452776      -1.37343144
Pt       2.65398537       1.53227917      12.28102103       0.15469790      -0.06524766       0.01946145
Pt       1.45285370       2.25645846      14.56900696      -0.11556853       0.05072170       1.36726546
H        1.71082173       0.92627930      20.45059574      -0.00008999      -0.00000180      -0.01329543
4
Lattice="2.653985369848837 0.0 0.0 1.326992684924419 2.298418751561331 0.0 0.0 0.0 24.562042063818488" Properties=species:S:1:pos:R:3:forces:R:3 energy=2.331052368866054 pbc="T T F"
Pt       1.32699268       0.76613958      10.00000000      -0.03013565       0.00483753      -1.34216201
Pt       2.65398537       1.53227917      12.28102103       0.39236066      -0.05119195      -0.89061916
Pt       1.48623853       2.22152576      14.49885184      -0.67238033      -0.23262520       3.82969499
H        2.93726799       1.97061744      15.97935295       0.31015503       0.27897963      -1.59691381
4
Lattice="2.653985369848837 0.0 0.0 1.326992684924419 2.298418751561331 0.0 0.0 0.0 24.562042063818488" Properties=species:S:1:pos:R:3:forces:R:3 energy=4.489051967361789 pbc="T T F"
Pt       1.32699268       0.76613958      10.00000000      -0.07236036       0.01281978      -1.36630464
Pt       2.65398537       1.53227917      12.28102103       0.33694902      -0.10912020      -0.97598803
Pt       1.51462360       2.27653426      14.48204206      -0.26543942       0.09652102       2.37263894
H        2.34397314       0.10860194      18.90934877       0.00085104      -0.00022060      -0.03034622
4
Lattice="2.653985369848837 0.0 0.0 1.326992684924419 2.298418751561331 0.0 0.0 0.0 24.562042063818488" Properties=species:S:1:pos:R:3:forces:R:3 energy=4.272645867079532 pbc="T T F"
Pt       1.32699268       0.76613958      10.00000000      -0.02890666       0.04963206      -1.37362921
Pt       2.65398537       1.53227917      12.28102103       0.12107968      -0.14873756       0.20518793
Pt       1.42095796       2.10286245      14.59611665      -0.08683130       0.10063581       1.21242380
H        2.11546018       2.25393329      18.46367207      -0.00534172      -0.00153032      -0.04398258
4
Lattice="2.653985369848837 0.0 0.0 1.326992684924419 2.298418751561331 0.0 0.0 0.0 24.562042063818488" Properties=species:S:1:pos:R:3:forces:R:3 energy=3.870450557752534 pbc="T T F"
Pt       1.32699268       0.76613958      10.00000000      -0.01625194       0.02181556      -1.29728770
Pt       2.65398537       1.53227917      12.28102103       0.02341427      -0.03756588       1.17293942
Pt       1.39561460       2.22638370      14.73022063      -0.12026747       0.15880652       0.87094969
H        2.12285693       0.76354423      17.36204206       0.11310541      -0.14305620      -0.74660110
4
Lattice="2.653985369848837 0.0 0.0 1.326992684924419 2.298418751561331 0.0 0.0 0.0 24.562042063818488" Properties=species:S:1:pos:R:3:forces:R:3 energy=4.223141960822446 pbc="T T F"
Pt       1.32699268       0.76613958      10.00000000      -0.03574579       0.02800111      -1.38394499
Pt       2.65398537       1.53227917      12.28102103       0.08274633      -0.05924465       1.11130190
Pt       1.51201999       2.13488548      14.73284917      -0.04702625       0.03107795       0.29296359
H        1.37943220       1.26486871      20.05694143       0.00002571       0.00016558      -0.02032046
4
Lattice="2.653985369848837 0.0 0.0 1.326992684924419 2.298418751561331 0.0 0.0 0.0 24.562042063818488" Properties=species:S:1:pos:R:3:forces:R:3 energy=1.9416687924413196 pbc="T T F"
Pt       1.32699268       0.76613958      10.00000000      -0.03367554      -0.02169934      -1.31226003
Pt       2.65398537       1.53227917      12.28102103       0.25119141       0.05305523      -0.21821186
Pt       0.15377268       0.03468924      14.55625833      -1.02539098      -0.32184893       3.03654671
H        3.53843005       2.13976330      16.16204206       0.80787486       0.29049304      -1.50607467
4
Lattice="2.653985369848837 0.0 0.0 1.326992684924419 2.298418751561331 0.0 0.0 0.0 24.562042063818488" Properties=species:S:1:pos:R:3:forces:R:3 energy=1.9130113251003564 pbc="T T F"
Pt       1.32699268       0.76613958      10.00000000      -0.00669464       0.02047241      -1.27601469
Pt       2.65398537       1.53227917      12.28102103       0.15460894      -0.17125683      -1.02874553
Pt       1.38836306       2.20866905      14.48204206      -0.29925433       0.32944268       3.80967546
H        2.61334487       0.02502439      16.16204206       0.15134002      -0.17865826      -1.50491512
4
Lattice="2.653985369848837 0.0 0.0 1.326992684924419 2.298418751561331 0.0 0.0 0.0 24.562042063818488" Properties=species:S:1:pos:R:3:forces:R:3 energy=3.0321838040772633 pbc="T T F"
Pt       1.32699268       0.76613958      10.00000000      -0.05859750      -0.02872951      -1.26541686
Pt       2.65398537       1.53227917      12.28102103       0.26587343       0.12657234      -0.99272078
Pt       0.19625436       0.13078262      14.48204206       0.05339488       0.60546374       4.30486441
H        3.22547750       1.09683922      16.36204206      -0.26067081      -0.70330656      -2.04672647
4
Lattice="2.723827090108017 0.0 0.0 1.361913545054009 2.358903455549787 0.0 0.0 0.0 24.562042063818488" Properties=species:S:1:pos:R:3:forces:R:3 energy=2.7909350006930396 pbc="T T F"
Pt       1.36191355       0.78630115      10.00000000      -0.02967439      -0.01047236      -0.79270357
Pt       2.72382709       1.57260230      12.28102103       0.12531841      -0.00296037      -0.35502490
Pt       0.08083399       0.04259112      14.51302556      -0.08995417      -0.37045357       3.10791779
H        1.38230892       1.05559239      16.38659308      -0.00568959       0.38388655      -1.96018910
4
Lattice="2.723827090108017 0.0 0.0 1.361913545054009 2.358903455549787 0.0 0.0 0.0 24.562042063818488" Properties=species:S:1:pos:R:3:forces:R:3 energy=2.0014315953967667 pbc="T T F"
Pt       1.36191355       0.78630115      10.00000000      -0.06715388       0.05337713      -0.89862120
Pt       2.72382709       1.57260230      12.28102103       0.65605968      -0.41655886      -1.12783897
Pt       1.56045596       2.17256816      14.48204206      -0.68906802       0.42317662       3.59773827
H        0.81182019       1.03047866      15.91542226       0.10016248      -0.05999464      -1.57127810
4
Lattice="2.723827090108017 0.0 0.0 1.361913545054009 2.358903455549787 0.0 0.0 0.0 24.562042063818488" Properties=species:S:1:pos:R:3:forces:R:3 energy=3.060987192476219 pbc="T T F"
Pt       1.36191355       0.78630115      10.00000000       0.02521250      -0.02724315      -0.75746554
Pt       2.72382709       1.57260230      12.28102103      -0.07519089       0.12789543      -0.76281887
Pt       2.66198003       0.07400421      14.48204206       0.09804671       0.09889544       3.67998385
H        2.71037446       0.26113461      16.78764080      -0.04806806      -0.19954771      -2.15969944
4
Lattice="2.723827090108017 0.0 0.0 1.361913545054009 2.358903455549787 0.0 0.0 0.0 24.562042063818488" Properties=species:S:1:pos:R:3:forces:R:3 energy=1.6456928572106477 pbc="T T F"
Pt       1.36191355       0.78630115      10.00000000       0.05772179       0.00690470      -0.92897362
Pt       2.72382709       1.57260230      12.28102103      -0.37166020       0.10903253      -1.08972645
Pt       2.52835518       0.08008644      14.48204206       0.24944536       0.08489835       0.53857958
H        1.50387138       1.94632303      15.86204206       0.06449330      -0.20083557       1.48012042
4
Lattice="2.723827090108017 0.0 0.0 1.361913545054009 2.358903455549787 0.0 0.0 0.0 24.562042063818488" Properties=species:S:1:pos:R:3:forces:R:3 energy=4.053898227012738 pbc="T T F"
Pt       1.36191355       0.78630115      10.00000000      -0.05396952      -0.05074381      -0.83392656
Pt       2.72382709       1.57260230      12.28102103       0.11940410       0.15192753      -0.13180478
Pt       0.14719347       0.13526348      14.55565489      -0.10143749      -0.08146387       1.19736254
H        1.93779629       0.73802556      17.75664525       0.03600290      -0.01971985      -0.23163122
4
Lattice="2.723827090108017 0.0 0.0 1.361913545054009 2.358903455549787 0.0 0.0 0.0 24.562042063818488" Properties=species:S:1:pos:R:3:forces:R:3 energy=4.1264941918389155 pbc="T T F"
Pt       1.36191355       0.78630115      10.00000000      -0.01485404       0.04969969      -0.86458445
Pt       2.72382709       1.57260230      12.28102103       0.04800379      -0.12025899       0.41579369
Pt       1.40551421       2.19178109      14.62692861      -0.03322971       0.07063824       0.47024196
H        2.41435064       0.67066300      20.12474374       0.00007996      -0.00007919      -0.02145123
4
Lattice="2.723827090108017 0.0 0.0 1.361913545054009 2.358903455549787 0.0 0.0 0.0 24.562042063818488" Properties=species:S:1:pos:R:3:forces:R:3 energy=5.571313969633607 pbc="T T F"
Pt       1.36191355       0.78630115      10.00000000       0.01974170       0.03637880      -0.96079022
Pt       2.72382709       1.57260230      12.28102103      -0.04407642      -0.00217747       0.30472973
Pt       4.00683269       2.25115212      14.73544923      11.25032520      11.22748184      -0.41379672
H        3.23110337       1.35743686      14.76204206     -11.22599030     -11.26168346       1.06985724
4
Lattice="2.723827090108017 0.0 0.0 1.361913545054009 2.358903455549787 0.0 0.0 0.0 24.562042063818488" Properties=species:S:1:pos:R:3:forces:R:3 energy=1.8111401944688765 pbc="T T F"
Pt       1.36191355       0.78630115      10.00000000       0.04784772       0.03934508      -0.95950645
Pt       2.72382709       1.57260230      12.28102103      -0.16743822      -0.20328557      -1.13051748
Pt       1.30842547       2.25588930      14.48204206       0.29727098       0.38777483       0.48979312
H        1.83676136       1.00749226      15.40124440      -0.17768046      -0.22383435       1.60023081
4
Lattice="2.723827090108017 0.0 0.0 1.361913545054009 2.358903455549787 0.0 0.0 0.0 24.562042063818488" Properties=species:S:1:pos:R:3:forces:R:3 energy=4.1762983077124005 pbc="T T F"
Pt       1.36191355       0.78630115      10.00000000       0.02037496       0.05727647      -0.99938840
Pt       2.72382709       1.57260230      12.28102103      -0.08389870      -0.07597277       0.34227479
Pt       3.94542372       2.20017210      14.70204177       4.52769995      10.76591682      -6.29356480
H        0.75381445       1.15784237      15.16204206      -4.46417618     -10.74722004       6.95067835
4
Lattice="2.723827090108017 0.0 0.0 1.361913545054009 2.358903455549787 0.0 0.0 0.0 24.562042063818488" Properties=species:S:1:pos:R:3:forces:R:3 energy=3.473766778653058 pbc="T T F"
Pt       1.36191355       0.78630115      10.00000000       0.06487279      -0.07419742      -0.78654295
Pt       2.72382709       1.57260230      12.28102103      -0.04131198       0.28706962      -0.79459745
Pt       2.56699552       0.18281810      14.48204206      -0.29320708      -0.39646441       3.04395390
H        3.12777057       1.69326199      16.76632166       0.26964626       0.18359220      -1.46281338
4
Lattice="2.723827090108017 0.0 0.0 1.361913545054009 2.358903455549787 0.0 0.0 0.0 24.562042063818488" Properties=species:S:1:pos:R:3:forces:R:3 energy=2.0681158865600224 pbc="T T F"
Pt       1.36191355       0.78630115      10.00000000       0.02921288      -0.02248199      -0.87324262
Pt       2.72382709       1.57260230      12.28102103      -0.04532778       0.09576820       0.66602451
Pt       2.54099321       0.12905652      14.67898556      -0.56291866      -0.31648767       2.18864226
H        2.85993932       1.77247918      16.26167571       0.57903332       0.24320118      -1.98142421
4
Lattice="2.723827090108017 0.0 0.0 1.361913545054009 2.358903455549787 0.0 0.0 0.0 24.562042063818488" Properties=species:S:1:pos:R:3:forces:R:3 energy=4.102163675052921 pbc="T T F"
Pt       1.36191355       0.78630115      10.00000000       0.04312460       0.01216338      -0.86543983
Pt       2.72382709       1.57260230      12.28102103      -0.11714153      -0.04053525       0.49432495
Pt       3.94810709       2.32355005      14.63855759       0.07412054       0.02879713       0.39969781
H        2.34588109       1.12176042      19.36204206      -0.00010362      -0.00042526      -0.02858321
4
Lattice="2.723827090108017 0.0 0.0 1.361913545054009 2.358903455549787 0.0 0.0 0.0 24.562042063818488" Properties=species:S:1:pos:R:3:forces:R:3 energy=4.245173047441327 pbc="T T F"
Pt       1.36191355       0.78630115      10.00000000      -0.00746468       0.05379674      -0.84965658
Pt       2.72382709       1.57260230      12.28102103       0.03332690      -0.17842917      -0.60886633
Pt       1.37775693       2.23223298      14.49686997      -0.02581568       0.12456302       1.47737193
H        2.29205605       0.70270185      20.06864082      -0.00004654       0.00006968      -0.01884876
4
Lattice="2.723827090108017 0.0 0.0 1.361913545054009 2.358903455549787 0.0 0.0 0.0 24.562042063818488" Properties=species:S:1:pos:R:3:forces:R:3 energy=2.568579470952514 pbc="T T F"
Pt       1.36191355       0.78630115      10.00000000      -0.01504713      -0.06091947      -0.81889075
Pt       2.72382709       1.57260230      12.28102103       0.00591688       0.41931328      -0.26267061
Pt       2.73746390       0.18194981      14.54073652      -0.57491827      -0.29932374       3.18022633
H        1.58661919       0.26746896      16.36844601       0.58404827      -0.05907007      -2.09866524
4
Lattice="2.723827090108017 0.0 0.0 1.361913545054009 2.358903455549787 0.0 0.0 0.0 24.562042063818488" Properties=species:S:1:pos:R:3:forces:R:3 energy=1.6558161731800425 pbc="T T F"
Pt       1.36191355       0.78630115      10.00000000       0.05445417       0.01029136      -0.91945434
Pt       2.72382709       1.57260230      12.28102103      -0.37954858      -0.16159411      -0.98510903
Pt       3.93777856       2.33228126      14.48204206       0.29857400       0.23609954       1.72261047
H        1.99045199       0.68264209      15.78356057       0.02652068      -0.08479679       0.18195288
4
Lattice="2.723827090108017 0.0 0.0 1.361913545054009 2.358903455549787 0.0 0.0 0.0 24.562042063818488" Properties=species:S:1:pos:R:3:forces:R:3 energy=1.7647306310000346 pbc="T T F"
Pt       1.36191355       0.78630115      10.00000000       0.03298263      -0.01106371      -0.93689746
Pt       2.72382709       1.57260230      12.28102103      -0.20402090      -0.07031042      -1.06569505
Pt       2.63741828       0.03824896      14.48204206       0.48816615      -0.75609851       0.42102614
H        2.34087716       0.99230838      15.62282586      -0.31712785       0.83747262       1.58156645
4
Lattice="2.723827090108017 0.0 0.0 1.361913545054009 2.358903455549787 0.0 0.0 0.0 24.562042063818488" Properties=species:S:1:pos:R:3:forces:R:3 energy=2.183501756256206 pbc="T T F"
Pt       1.36191355       0.78630115      10.00000000      -0.03713573      -0.02557579      -0.96039450
Pt       2.72382709       1.57260230      12.28102103      -0.26561168      -0.12533614       0.24075863
Pt       3.94500517       2.28882909      14.66464142      -2.39212728      -0.75565475      -6.65601873
H        0.39162299       0.10794327      15.86204206       2.69487476       0.90656668       7.37565422
4
Lattice="2.723827090108017 0.0 0.0 1.361913545054009 2.358903455549787 0.0 0.0 0.0 24.562042063818488" Properties=species:S:1:pos:R:3:forces:R:3 energy=3.813052628346682 pbc="T T F"
Pt       1.36191355       0.78630115      10.00000000      -0.02442934      -0.01076624      -0.79734749
Pt       2.72382709       1.57260230      12.28102103       0.06890120       0.03071826       0.36860031
Pt       0.07836526       0.03747569      14.61671654       0.09044910       0.06068216       1.06760156
H        1.01284174       0.61151787      17.36204206      -0.13492097      -0.08063417      -0.63885415
4
Lattice="2.723827090108017 0.0 0.0 1.361913545054009 2.358903455549787 0.0 0.0 0.0 24.562042063818488" Properties=species:S:1:pos:R:3:forces:R:3 energy=4.086185421162568 pbc="T T F"
Pt       1.36191355       0.78630115      10.00000000       0.01891921       0.07087529      -0.83794910
Pt       2.72382709       1.57260230      12.28102103      -0.08299624      -0.19197914      -0.26731530
Pt       1.31544615       2.17363125      14.53954452       0.03745583       0.14727563       1.30628121
H        2.13514593       0.34875402      17.88092124       0.02662120      -0.02617178      -0.20101683
4
Lattice="2.723827090108017 0.0 0.0 1.361913545054009 2.358903455549787 0.0 0.0 0.0 24.562042063818488" Properties=species:S:1:pos:R:3:forces:R:3 energy=4.224374432534219 pbc="T T F"
Pt       1.36191355       0.78630115      10.00000000      -0.03392571      -0.05839336      -0.84532040
Pt       2.72382709       1.57260230      12.28102103       0.09695836       0.23812686      -0.78776115
Pt       0.08012807       0.12721874      14.48204206      -0.06520704      -0.17938331       1.68265367
H        2.60792006       0.16351627      18.46665121       0.00217438      -0.00035018      -0.04957216
4
Lattice="2.723827090108017 0.0 0.0 1.361913545054009 2.358903455549787 0.0 0.0 0.0 24.562042063818488" Properties=species:S:1:pos:R:3:forces:R:3 energy=1.6452921015197859 pbc="T T F"
Pt       1.36191355       0.78630115      10.00000000      -0.03280188      -0.00672498      -0.93401939
Pt       2.72382709       1.57260230      12.28102103      -0.10231783      -0.11616348      -0.61089057
Pt       4.03226889       2.28931142      14.50555651       0.38187030       0.27244207       2.17514014
H        0.95297889       0.52921383      15.76204206      -0.24675059      -0.14955363      -0.63023043
4
Lattice="2.723827090108017 0.0 0.0 1.361913545054009 2.358903455549787 0.0 0.0 0.0 24.562042063818488" Properties=species:S:1:pos:R:3:forces:R:3 energy=1.6812586152327782 pbc="T T F"
Pt       1.36191355       0.78630115      10.00000000       0.00854660      -0.05141204      -0.94529957
Pt       2.72382709       1.57260230      12.28102103      -0.04942072       0.32325223      -0.65633738
Pt       2.59542843       0.18144590      14.50642329       0.40030664      -0.09179893       2.45484757
H        0.74146815       0.94548963      15.81031734      -0.35943255      -0.18004125      -0.85321063
4
Lattice="2.723827090108017 0.0 0.0 1.361913545054009 2.358903455549787 0.0 0.0 0.0 24.562042063818488" Properties=species:S:1:pos:R:3:forces:R:3 energy=1.5841030137517151 pbc="T T F"
Pt       1.36191355       0.78630115      10.00000000      -0.01522556       0.02696007      -0.90039116
Pt       2.72382709       1.57260230      12.28102103       0.18528631      -0.18587175       0.04170690
Pt       1.40434450       2.18206613      14.59549692      -0.58835846      -0.22407243       1.81214964
H        3.44842591       1.40759911      15.96204206       0.41829744       0.38298410      -0.95346540
4
Lattice="2.723827090108017 0.0 0.0 1.361913545054009 2.358903455549787 0.0 0.0 0.0 24.562042063818488" Properties=species:S:1:pos:R:3:forces:R:3 energy=3.1781100329835823 pbc="T T F"
Pt       1.36191355       0.78630115      10.00000000       0.08313097      -0.04005419      -0.77342957
Pt       2.72382709       1.57260230      12.28102103      -0.26483059       0.07458282      -0.79080045
Pt       2.55266437       0.08626834      14.48204206       0.60548508      -0.52402890       3.42215061
H        1.73571971       1.76572028      16.67449833      -0.42378545       0.48950028      -1.85792065
4
Lattice="2.723827090108017 0.0 0.0 1.361913545054009 2.358903455549787 0.0 0.0 0.0 24.562042063818488" Properties=species:S:1:pos:R:3:forces:R:3 energy=3.7622694467927573 pbc="T T F"
Pt       1.36191355       0.78630115      10.00000000      -0.04323233       0.05493934      -0.80062437
Pt       2.72382709       1.57260230      12.28102103       0.17862870      -0.15415667      -0.09976935
Pt       1.48170684       2.21961802      14.56016896      -0.29603118       0.23717323       1.78632903
H        2.34056671       0.28671406      17.30051896       0.16063508      -0.13795589      -0.88593513
4
Lattice="2.723827090108017 0.0 0.0 1.361913545054009 2.358903455549787 0.0 0.0 0.0 24.562042063818488" Properties=species:S:1:pos:R:3:forces:R:3 energy=2.1934022109717404 pbc="T T F"
Pt       1.36191355       0.78630115      10.00000000       0.01880351       0.00442384      -0.85393697
Pt       2.72382709       1.57260230      12.28102103      -0.12034281       0.00628583       0.87887692
Pt       3.97297884       2.28536986      14.72025928       0.43036646      -0.34104118       2.03951979
H        2.48153384       1.83761791      16.36204206      -0.32882714       0.33033150      -2.06445980
4
Lattice="2.723827090108017 0.0 0.0 1.361913545054009 2.358903455549787 0.0 0.0 0.0 24.562042063818488" Properties=species:S:1:pos:R:3:forces:R:3 energy=4.058152999366044 pbc="T T F"
Pt       1.36191355       0.78630115      10.00000000      -0.00719395      -0.02310162      -0.86650503