4
Lattice="2.653985369848837 0.0 0.0 1.326992684924419 2.298418751561331 0.0 0.0 0.0 24.562042063818488" Properties=species:S:1:pos:R:3:forces:R:3 energy=5.308012650667493 pbc="T T F"
Pt       1.32699268       0.76613958      10.00000000      -0.02777332      -0.02123037      -1.46588421
Pt       2.65398537       1.53227917      12.28102103       0.00667047       0.04282378       0.51240110
Pt       0.08072698       0.10182817      14.71045406     -13.22487926      -8.30134773      -3.85927987
H        1.06054462       0.74786284      14.96204206      13.24598122       8.27975464       4.81276321
4
Lattice="2.653985369848837 0.0 0.0 1.326992684924419 2.298418751561331 0.0 0.0 0.0 24.562042063818488" Properties=species:S:1:pos:R:3:forces:R:3 energy=2.5178452018672175 pbc="T T F"
Pt       1.32699268       0.76613958      10.00000000      -0.03572831       0.04135825      -1.28957808
Pt       2.65398537       1.53227917      12.28102103       0.36449248      -0.23662044      -0.47055793
Pt       1.46861635       2.19675944      14.53189317       0.01946145       0.92738748       3.77967000
H        0.62496284       0.81803357      16.21086481      -0.34822562      -0.73212528      -2.01953387
4
Lattice="2.653985369848837 0.0 0.0 1.326992684924419 2.298418751561331 0.0 0.0 0.0 24.562042063818488" Properties=species:S:1:pos:R:3:forces:R:3 energy=2.5002180740257387 pbc="T T F"
Pt       1.32699268       0.76613958      10.00000000       0.02710277       0.02409767      -1.29943287
Pt       2.65398537       1.53227917      12.28102103      -0.17906192      -0.13920905       0.22187980
Pt       3.87584595       2.21248084      14.60719092       0.27659237       0.36959970       2.99449420
H        2.40597511       1.28817325      16.21872116      -0.12463321      -0.25448808      -1.91694093
4
Lattice="2.653985369848837 0.0 0.0 1.326992684924419 2.298418751561331 0.0 0.0 0.0 24.562042063818488" Properties=species:S:1:pos:R:3:forces:R:3 energy=3.964360112969203 pbc="T T F"
Pt       1.32699268       0.76613958      10.00000000       0.07416039       0.03209791      -1.24700391
Pt       2.65398537       1.53227917      12.28102103      -0.35720778      -0.16832860      -0.87291533
Pt       3.78261035       2.21751532      14.49688394       0.25653005       0.20793644       3.15908074
H        1.18744956       0.55764451      16.87683382       0.02651759      -0.07170602      -1.03916156
4
Lattice="2.653985369848837 0.0 0.0 1.326992684924419 2.298418751561331 0.0 0.0 0.0 24.562042063818488" Properties=species:S:1:pos:R:3:forces:R:3 energy=3.5473548706204525 pbc="T T F"
Pt       1.32699268       0.76613958      10.00000000      -0.06696439      -0.03907254      -1.25023913
Pt       2.65398537       1.53227917      12.28102103       0.07670527       0.05341287      -0.06845460
Pt       0.17549061       0.10433707      14.55739227      -0.15140174      -0.04204628       2.82397532
H        1.94717917       1.09578543      16.74708009       0.14166085       0.02770621      -1.50528157
4
Lattice="2.653985369848837 0.0 0.0 1.326992684924419 2.298418751561331 0.0 0.0 0.0 24.562042063818488" Properties=species:S:1:pos:R:3:forces:R:3 energy=4.332963034004038 pbc="T T F"
Pt       1.32699268       0.76613958      10.00000000       0.00358540      -0.05594798      -1.31002092
Pt       2.65398537       1.53227917      12.28102103      -0.01803166       0.26896414      -0.95391434
Pt       2.64289425       0.13957225      14.48204206      -0.01384205      -0.15395844       2.60514927
H        2.21603841       1.05934391      17.48961991       0.02828831      -0.05905773      -0.34121397
4
Lattice="2.653985369848837 0.0 0.0 1.326992684924419 2.298418751561331 0.0 0.0 0.0 24.562042063818488" Properties=species:S:1:pos:R:3:forces:R:3 energy=4.420440701879684 pbc="T T F"
Pt       1.32699268       0.76613958      10.00000000      -0.01148435       0.02184538      -1.36456990
Pt       2.65398537       1.53227917      12.28102103       0.05283257      -0.08710153      -0.49275118
Pt       1.35720888       2.23876238      14.51420224      -0.04153797       0.06514481       1.88135529
H        3.43749791       2.20636761      19.66230418       0.00018975       0.00011133      -0.02403442
4
Lattice="2.653985369848837 0.0 0.0 1.326992684924419 2.298418751561331 0.0 0.0 0.0 24.562042063818488" Properties=species:S:1:pos:R:3:forces:R:3 energy=2.897305874183999 pbc="T T F"
Pt       1.32699268       0.76613958      10.00000000      -0.00548005       0.03636543      -1.47782445
Pt       2.65398537       1.53227917      12.28102103       0.01234361       0.06569324      -0.89898860
Pt       0.00889445       0.01210699      14.52690185      -0.06365667       3.59818363      -1.35071480
H        1.25606200       1.03687188      15.16204206       0.05679284      -3.70024228       3.72752786
4
Lattice="2.653985369848837 0.0 0.0 1.326992684924419 2.298418751561331 0.0 0.0 0.0 24.562042063818488" Properties=species:S:1:pos:R:3:forces:R:3 energy=4.014561106911984 pbc="T T F"
Pt       1.32699268       0.76613958      10.00000000       0.03945641      -0.04363291      -1.46582568
Pt       2.65398537       1.53227917      12.28102103       0.08344362       0.02231229       0.30125311
Pt       2.68585020       0.09865483      14.66704464       7.50053310      -6.89056921      -9.68953800
H        2.00949967       0.71837969      15.47925023      -7.62343359       6.91189003      10.85410976
4
Lattice="2.653985369848837 0.0 0.0 1.326992684924419 2.298418751561331 0.0 0.0 0.0 24.562042063818488" Properties=species:S:1:pos:R:3:forces:R:3 energy=2.10032505205983 pbc="T T F"
Pt       1.32699268       0.76613958      10.00000000       0.02803146       0.00617013      -1.42422366
Pt       2.65398537       1.53227917      12.28102103      -0.30959401      -0.11238421      -0.48458588
Pt       3.79129327       2.20083426      14.56754930       0.95570332       0.35613406       0.01473139
H        2.56853942       1.98407025      15.52564802      -0.67414075      -0.24992000       1.89407814
4
Lattice="2.653985369848837 0.0 0.0 1.326992684924419 2.298418751561331 0.0 0.0 0.0 24.562042063818488" Properties=species:S:1:pos:R:3:forces:R:3 energy=2.6404505244472745 pbc="T T F"
Pt       1.32699268       0.76613958      10.00000000       0.00965989       0.01083129      -1.37613344
Pt       2.65398537       1.53227917      12.28102103       0.03521332      -0.21521755      -0.01432105
Pt       1.33927021       2.15882415      14.61857479       0.46412608      -1.93997693      -7.58310747
H        2.58194931       0.22611340      15.86204206      -0.50899929       2.14436316       8.97356224
4
Lattice="2.653985369848837 0.0 0.0 1.326992684924419 2.298418751561331 0.0 0.0 0.0 24.562042063818488" Properties=species:S:1:pos:R:3:forces:R:3 energy=4.313853701955864 pbc="T T F"
Pt       1.32699268       0.76613958      10.00000000       0.04168016      -0.05546487      -1.31619251
Pt       2.65398537       1.53227917      12.28102103      -0.12252773       0.24833131      -0.97392648
Pt       2.54021785       0.13862402      14.48204206       0.04543268      -0.20658687       2.71336699
H        2.31864887       0.04714708      17.57807757       0.03541489       0.01372044      -0.42324808
4
Lattice="2.653985369848837 0.0 0.0 1.326992684924419 2.298418751561331 0.0 0.0 0.0 24.562042063818488" Properties=species:S:1:pos:R:3:forces:R:3 energy=2.227929854610025 pbc="T T F"
Pt       1.32699268       0.76613958      10.00000000       0.03270341       0.05863041      -1.31850088
Pt       2.65398537       1.53227917      12.28102103      -0.44316849      -0.24542673      -1.07744610
Pt       3.83672654       2.10328098      14.48204206      -0.49563777       0.20972541       4.21428823
H        3.13153184       2.11828221      16.12807031       0.90610284      -0.02292884      -1.81834137
4
Lattice="2.653985369848837 0.0 0.0 1.326992684924419 2.298418751561331 0.0 0.0 0.0 24.562042063818488" Properties=species:S:1:pos:R:3:forces:R:3 energy=3.1910403395004465 pbc="T T F"
Pt       1.32699268       0.76613958      10.00000000      -0.01716803      -0.02515645      -1.42865849
Pt       2.65398537       1.53227917      12.28102103      -0.06701607       0.09884299       0.28737068
Pt       2.62599205       0.07348856      14.66825744      -6.22050190       0.81560564      -5.42140532
H        2.35963823       2.23919826      15.43296721       6.30468607      -0.88929248       6.56269312
4
Lattice="2.653985369848837 0.0 0.0 1.326992684924419 2.298418751561331 0.0 0.0 0.0 24.562042063818488" Properties=species:S:1:pos:R:3:forces:R:3 energy=4.196897667244244 pbc="T T F"
Pt       1.32699268       0.76613958      10.00000000       0.00079627      -0.01245417      -1.37113142
Pt       2.65398537       1.53227917      12.28102103      -0.00150487       0.02441623       1.30743337
Pt       2.64868542       0.07025011      14.76029260       0.00086312      -0.01207519       0.09125180
H        1.30294302       0.19671370      19.38457063      -0.00015478       0.00011313      -0.02755400
4
Lattice="2.653985369848837 0.0 0.0 1.326992684924419 2.298418751561331 0.0 0.0 0.0 24.562042063818488" Properties=species:S:1:pos:R:3:forces:R:3 energy=3.685955182093508 pbc="T T F"
Pt       1.32699268       0.76613958      10.00000000      -0.02562953      -0.02505283      -1.42483091
Pt       2.65398537       1.53227917      12.28102103      -0.38444680      -0.17249995      -0.04594819
Pt       3.79454974       2.22779850      14.63804490      -4.78608131      -0.33729327     -12.81807232
H        1.60710808       2.27603926      15.76204206       5.19615746       0.53484583      14.28885078
4
Lattice="2.653985369848837 0.0 0.0 1.326992684924419 2.298418751561331 0.0 0.0 0.0 24.562042063818488" Properties=species:S:1:pos:R:3:forces:R:3 energy=1.724580978904683 pbc="T T F"
Pt       1.32699268       0.76613958      10.00000000      -0.01857288      -0.00149561      -1.38385522
Pt       2.65398537       1.53227917      12.28102103       0.18117125      -0.04361774       0.70319265
Pt       1.52672235       2.29449330      14.70681303      -0.16813190       0.03049329       0.78659898
H        1.51300119       0.74177653      15.76204206       0.00553353       0.01462006      -0.10593640
4
Lattice="2.653985369848837 0.0 0.0 1.326992684924419 2.298418751561331 0.0 0.0 0.0 24.562042063818488" Properties=species:S:1:pos:R:3:forces:R:3 energy=4.060304467619986 pbc="T T F"
Pt       1.32699268       0.76613958      10.00000000       0.03103476      -0.01361194      -1.31992626
Pt       2.65398537       1.53227917      12.28102103      -0.07224620       0.01881791       0.65679222
Pt       2.53764407       0.04018995      14.64634062       0.01691812      -0.10458528       1.08197629
H        0.94746035       1.45883116      17.57724876       0.02429307       0.09937906      -0.41884226
4
Lattice="2.653985369848837 0.0 0.0 1.326992684924419 2.298418751561331 0.0 0.0 0.0 24.562042063818488" Properties=species:S:1:pos:R:3:forces:R:3 energy=4.363209986441703 pbc="T T F"
Pt       1.32699268       0.76613958      10.00000000       0.06500006       0.03794846      -1.32086015
Pt       2.65398537       1.53227917      12.28102103      -0.32635453      -0.17814429      -1.01158619
Pt       3.81902919       2.20701653      14.48204206       0.23242980       0.15048411       2.62870312
H        1.30358423       0.01180069      17.51602955       0.02892466      -0.01028827      -0.29625666
4
Lattice="2.653985369848837 0.0 0.0 1.326992684924419 2.298418751561331 0.0 0.0 0.0 24.562042063818488" Properties=species:S:1:pos:R:3:forces:R:3 energy=4.444161479527807 pbc="T T F"
Pt       1.32699268       0.76613958      10.00000000       0.05290842      -0.02999578      -1.37131190
Pt       2.65398537       1.53227917      12.28102103      -0.18784893       0.10534427      -0.55730468
Pt       2.48872627       0.09389201      14.51495982       0.13515802      -0.07540429       1.94529188
H        3.09097832       1.72007429      20.26828968      -0.00021752       0.00005605      -0.01667566
4
Lattice="2.653985369848837 0.0 0.0 1.326992684924419 2.298418751561331 0.0 0.0 0.0 24.562042063818488" Properties=species:S:1:pos:R:3:forces:R:3 energy=4.233223031115827 pbc="T T F"
Pt       1.32699268       0.76613958      10.00000000      -0.00741789      -0.03994801      -1.38092208
Pt       2.65398537       1.53227917      12.28102103       0.01490314       0.10707129       0.93113691
Pt       2.69798134       0.18487528      14.69451772      -0.00759221      -0.06727137       0.47270378
H        2.71759891       0.85067802      19.94886188       0.00010696       0.00014810      -0.02291830
4
Lattice="2.653985369848837 0.0 0.0 1.326992684924419 2.298418751561331 0.0 0.0 0.0 24.562042063818488" Properties=species:S:1:pos:R:3:forces:R:3 energy=4.252121406890197 pbc="T T F"
Pt       1.32699268       0.76613958      10.00000000      -0.03529071      -0.02576760      -1.37697315
Pt       2.65398537       1.53227917      12.28102103       0.08858582       0.07107224       0.59967029
Pt       0.16354136       0.11458458      14.64246939      -0.05340105      -0.04531904       0.80498034
H        1.66543798       0.85447802      19.36204206       0.00010567       0.00001440      -0.02767716
4
Lattice="2.723827090108017 0.0 0.0 1.361913545054009 2.358903455549787 0.0 0.0 0.0 24.562042063818488" Properties=species:S:1:pos:R:3:forces:R:3 energy=2.441159093575166 pbc="T T F"
Pt       1.36191355       0.78630115      10.00000000      -0.02559816       0.02181273      -0.82181048
Pt       2.72382709       1.57260230      12.28102103       0.16454265      -0.14336807       0.41165730
Pt       1.41895030       2.26885911      14.62312164      -0.24239668      -0.15302667       2.52956271
H        0.84247537       1.14088313      16.40549376       0.10345246       0.27458200      -2.11940932
4
Lattice="2.723827090108017 0.0 0.0 1.361913545054009 2.358903455549787 0.0 0.0 0.0 24.562042063818488" Properties=species:S:1:pos:R:3:forces:R:3 energy=3.631134919279262 pbc="T T F"
Pt       1.36191355       0.78630115      10.00000000       0.01566085       0.06389064      -1.00302935
Pt       2.72382709       1.57260230      12.28102103      -0.05709469       0.02864749       0.48736396
Pt       3.97489115       2.31935071      14.71691984       1.71324778      10.76871681      -7.66445351
H        1.07677165       1.27369633      15.36204206      -1.67181396     -10.86125565       8.18011856
4
Lattice="2.723827090108017 0.0 0.0 1.361913545054009 2.358903455549787 0.0 0.0 0.0 24.562042063818488" Properties=species:S:1:pos:R:3:forces:R:3 energy=3.0052763009871484 pbc="T T F"
Pt       1.36191355       0.78630115      10.00000000       0.02764707       0.04449603      -0.80977339
Pt       2.72382709       1.57260230      12.28102103      -0.15095590      -0.05445957       0.52668589
Pt       3.97222984       2.18164980      14.63620456       0.59701532      -0.09941351       2.12144685
H        2.35489939       2.04605478      16.73574373      -0.47370651       0.10937705      -1.83835948
4
Lattice="2.723827090108017 0.0 0.0 1.361913545054009 2.358903455549787 0.0 0.0 0.0 24.562042063818488" Properties=species:S:1:pos:R:3:forces:R:3 energy=2.7058604383646667 pbc="T T F"
Pt       1.36191355       0.78630115      10.00000000       0.01736318       0.01337488      -0.96646053
Pt       2.72382709       1.57260230      12.28102103       0.03781167      -0.10522986       0.42808306
Pt       1.39535355       2.19281197      14.71993361       1.54578638      -5.08700752      -4.35279131
H        2.34419338       0.94726198      15.36204206      -1.60096133       5.17886257       4.89116907
4
Lattice="2.723827090108017 0.0 0.0 1.361913545054009 2.358903455549787 0.0 0.0 0.0 24.562042063818488" Properties=species:S:1:pos:R:3:forces:R:3 energy=4.246734368754019 pbc="T T F"
Pt       1.36191355       0.78630115      10.00000000      -0.01428531       0.03027397      -0.84515280
Pt       2.72382709       1.57260230      12.28102103       0.05956861      -0.10992161      -0.72727287
Pt       1.39101257       2.29274591      14.48204206      -0.04524422       0.07990552       1.59874499
H        2.83109208       0.56937445      19.36204206      -0.00003934      -0.00025788      -0.02631936
4
Lattice="2.723827090108017 0.0 0.0 1.361913545054009 2.358903455549787 0.0 0.0 0.0 24.562042063818488" Properties=species:S:1:pos:R:3:forces:R:3 energy=1.7354265530930348 pbc="T T F"
Pt       1.36191355       0.78630115      10.00000000       0.01412950      -0.00056153      -0.89749610
Pt       2.72382709       1.57260230      12.28102103      -0.02761853      -0.03276666       0.17155044
Pt       2.60166412       0.03582044      14.59458599      -0.17059630      -0.16273284       2.30656600
H        3.30286108       1.31760017      16.02308324       0.18408509       0.19606103      -1.58062005
4
Lattice="2.723827090108017 0.0 0.0 1.361913545054009 2.358903455549787 0.0 0.0 0.0 24.562042063818488" Properties=species:S:1:pos:R:3:forces:R:3 energy=3.1611791084624343 pbc="T T F"
Pt       1.36191355       0.78630115      10.00000000      -0.05788762      -0.05377154      -0.77802283
Pt       2.72382709       1.57260230      12.28102103       0.12339856       0.24282067      -0.79531145
Pt       0.12108000       0.14946492      14.48204206      -0.21942748      -0.64821732       3.57000589
H        1.33050568       2.00318271      16.77248022       0.15391654       0.45916820      -1.99667156
4
Lattice="2.723827090108017 0.0 0.0 1.361913545054009 2.358903455549787 0.0 0.0 0.0 24.562042063818488" Properties=species:S:1:pos:R:3:forces:R:3 energy=1.8392581280468363 pbc="T T F"
Pt       1.36191355       0.78630115      10.00000000      -0.00087212      -0.00004319      -0.94208801
Pt       2.72382709       1.57260230      12.28102103      -0.05319613       0.07430746      -0.82651103
Pt       2.72504290       0.03150758      14.52554867      -1.19993138       0.66413039      -0.08325335
H        2.43315288       1.65773208      15.36204206       1.25399959      -0.73839468       1.85185242
4
Lattice="2.723827090108017 0.0 0.0 1.361913545054009 2.358903455549787 0.0 0.0 0.0 24.562042063818488" Properties=species:S:1:pos:R:3:forces:R:3 energy=2.5365190156781097 pbc="T T F"
Pt       1.36191355       0.78630115      10.00000000       0.04620427      -0.01465555      -0.80974251
Pt       2.72382709       1.57260230      12.28102103      -0.23498574       0.04703731      -0.77510923
Pt       2.54698801       0.04379063      14.48204206      -0.71025962      -0.32787764       3.82401490
H        3.08206375       2.12443678      16.37138261       0.89904106       0.29549587      -2.23916340
4
Lattice="2.723827090108017 0.0 0.0 1.361913545054009 2.358903455549787 0.0 0.0 0.0 24.562042063818488" Properties=species:S:1:pos:R:3:forces:R:3 energy=4.036227084757243 pbc="T T F"
Pt       1.36191355       0.78630115      10.00000000       0.01006664      -0.05343653      -0.78992474
Pt       2.72382709       1.57260230      12.28102103      -0.02648648       0.19557072      -0.79408735
Pt       2.70101378       0.10068950      14.48204206      -0.00647609      -0.16723433       2.03395796
H        2.77202062       2.10811542      17.36253150       0.02289568       0.02510014      -0.44994593
4
Lattice="2.723827090108017 0.0 0.0 1.361913545054009 2.358903455549787 0.0 0.0 0.0 24.562042063818488" Properties=species:S:1:pos:R:3:forces:R:3 energy=3.6273818568597704 pbc="T T F"
Pt       1.36191355       0.78630115      10.00000000      -0.03146825      -0.03156621      -0.80229664
Pt       2.72382709       1.57260230      12.28102103       0.05693297       0.08342073       0.77442944
Pt       0.11473974       0.14134556      14.68601333       0.07425346       0.21221527       1.02697217
H        3.12718839       0.92477612      17.29623843      -0.09971819      -0.26406980      -0.99910504
4
Lattice="2.723827090108017 0.0 0.0 1.361913545054009 2.358903455549787 0.0 0.0 0.0 24.562042063818488" Properties=species:S:1:pos:R:3:forces:R:3 energy=4.247481185250777 pbc="T T F"
Pt       1.36191355       0.78630115      10.00000000       0.02801448      -0.02457641      -0.84564978
Pt       2.72382709       1.57260230      12.28102103      -0.09629116       0.09241471      -0.73124158
Pt       2.66179177       0.05329567      14.48204206       0.06809696      -0.06799412       1.60282767
H        3.20534940       2.00375989      19.36204206       0.00017972       0.00015607      -0.02593626
4
Lattice="2.723827090108017 0.0 0.0 1.361913545054009 2.358903455549787 0.0 0.0 0.0 24.562042063818488" Properties=species:S:1:pos:R:3:forces:R:3 energy=3.2631176553031906 pbc="T T F"
Pt       1.36191355       0.78630115      10.00000000      -0.03187911       0.05039363      -0.99435288
Pt       2.72382709       1.57260230      12.28102103       0.14821073      -0.13435172      -0.85157466
Pt       1.44115217       2.24787600      14.53898890       0.55991250       3.51593685      -2.63751245
H        0.92131309       1.06561804      15.00403209      -0.67624390      -3.43197870       4.48344040
4
Lattice="2.723827090108017 0.0 0.0 1.361913545054009 2.358903455549787 0.0 0.0 0.0 24.562042063818488" Properties=species:S:1:pos:R:3:forces:R:3 energy=2.4585077809051796 pbc="T T F"
Pt       1.36191355       0.78630115      10.00000000       0.01498902       0.00192653      -0.96035028
Pt       2.72382709       1.57260230      12.28102103      -0.05106057      -0.03313638       0.22909251
Pt       4.01787378       2.32358214      14.69307827       0.73591816      -0.75635791      -1.09310532
H        1.33262695       0.69706304      14.96204206      -0.69984663       0.78756803       1.82436311
4
Lattice="2.723827090108017 0.0 0.0 1.361913545054009 2.358903455549787 0.0 0.0 0.0 24.562042063818488" Properties=species:S:1:pos:R:3:forces:R:3 energy=1.7709123096401669 pbc="T T F"
Pt       1.36191355       0.78630115      10.00000000       0.03021844      -0.03308136      -0.95020396
Pt       2.72382709       1.57260230      12.28102103      -0.18564138       0.17969494      -1.12927616
Pt       2.61954091       0.14348517      14.48204206       0.43928817      -0.95787328       0.67623025
H        2.30340749       1.17709891      15.57414616      -0.28386524       0.81125945       1.40324986
4
Lattice="2.723827090108017 0.0 0.0 1.361913545054009 2.358903455549787 0.0 0.0 0.0 24.562042063818488" Properties=species:S:1:pos:R:3:forces:R:3 energy=3.0843723176722193 pbc="T T F"
Pt       1.36191355       0.78630115      10.00000000      -0.05449839      -0.05611356      -0.79064357
Pt       2.72382709       1.57260230      12.28102103       0.19300759       0.27973142      -0.73217261
Pt       0.19266667       0.14612608      14.48940169       0.26257598      -0.07734933       3.36562395
H        1.35930749       0.37609112      16.52744687      -0.40108520      -0.14626853      -1.84280777
4
Lattice="2.723827090108017 0.0 0.0 1.361913545054009 2.358903455549787 0.0 0.0 0.0 24.562042063818488" Properties=species:S:1:pos:R:3:forces:R:3 energy=2.6243713843423535 pbc="T T F"
Pt       1.36191355       0.78630115      10.00000000       0.01905753       0.05147503      -0.81522512
Pt       2.72382709       1.57260230      12.28102103      -0.12891100      -0.18897429       0.42952931
Pt       3.99587830       2.21202636      14.62890835       0.05022856       0.95361531       2.47233963
H        2.53926976       0.89434612      16.54343187       0.05962517      -0.81611603      -2.08664346
4
Lattice="2.723827090108017 0.0 0.0 1.361913545054009 2.358903455549787 0.0 0.0 0.0 24.562042063818488" Properties=species:S:1:pos:R:3:forces:R:3 energy=1.617807649013244 pbc="T T F"
Pt       1.36191355       0.78630115      10.00000000      -0.02556397      -0.02434552      -0.94034195
Pt       2.72382709       1.57260230      12.28102103       0.09692494       0.19906949       0.48457378
Pt       0.19552194       0.16465063      14.69153156      -1.32631993      -0.39640602      -1.91829300
H        1.05784427       0.30050436      15.86204206       1.25495887       0.22168207       2.37406111
4
Lattice="2.723827090108017 0.0 0.0 1.361913545054009 2.358903455549787 0.0 0.0 0.0 24.562042063818488" Properties=species:S:1:pos:R:3:forces:R:3 energy=4.113413406355008 pbc="T T F"
Pt       1.36191355       0.78630115      10.00000000      -0.02987416       0.04020229      -0.88108474
Pt       2.72382709       1.57260230      12.28102103       0.05480307      -0.06451387       1.06251156
Pt       1.48971670       2.15940824      14.76038318      -0.02495796       0.02449413      -0.16206411
H        2.76351892       0.41260696      20.25303121       0.00002905      -0.00018229      -0.01936298
4
Lattice="2.723827090108017 0.0 0.0 1.361913545054009 2.358903455549787 0.0 0.0 0.0 24.562042063818488" Properties=species:S:1:pos:R:3:forces:R:3 energy=4.185557322024593 pbc="T T F"
Pt       1.36191355       0.78630115      10.00000000      -0.06372505       0.02568481      -0.86512309
Pt       2.72382709       1.57260230      12.28102103       0.22442751      -0.10506865      -0.06975069
Pt       1.53325594       2.29392040      14.56433400      -0.16060372       0.07946175       0.94178772
H        1.49336874       0.66203236      20.92953586      -0.00009847      -0.00007790      -0.00691395
4
Lattice="2.723827090108017 0.0 0.0 1.361913545054009 2.358903455549787 0.0 0.0 0.0 24.562042063818488" Properties=species:S:1:pos:R:3:forces:R:3 energy=4.303147586123501 pbc="T T F"
Pt       1.36191355       0.78630115      10.00000000       0.06197156       0.07413391      -0.85894597
Pt       2.72382709       1.57260230      12.28102103      -0.32353249      -0.27480930      -0.88570476
Pt       3.94939641       2.17882473      14.48204206       0.26175350       0.20082632       1.75227022
H        2.70897850       0.81691700      20.87522900      -0.00019258      -0.00015092      -0.00761921
4
Lattice="2.723827090108017 0.0 0.0 1.361913545054009 2.358903455549787 0.0 0.0 0.0 24.562042063818488" Properties=species:S:1:pos:R:3:forces:R:3 energy=1.63052679517115 pbc="T T F"
Pt       1.36191355       0.78630115      10.00000000       0.00029671       0.03451398      -0.89596552
Pt       2.72382709       1.57260230      12.28102103       0.02288076      -0.19983695       0.59623319
Pt       1.38626457       2.20120996      14.68646803      -0.02699556       0.87823105       1.62716496
H        2.69967719       0.92734021      16.08416366       0.00381809      -0.71290809      -1.32743239
4
Lattice="2.723827090108017 0.0 0.0 1.361913545054009 2.358903455549787 0.0 0.0 0.0 24.562042063818488" Properties=species:S:1:pos:R:3:forces:R:3 energy=3.903309259044377 pbc="T T F"
Pt       1.36191355       0.78630115      10.00000000       0.03603761      -0.00064638      -0.82328993
Pt       2.72382709       1.57260230      12.28102103      -0.07933140      -0.00483085       0.54794431
Pt       2.61302748       0.01559608      14.64415779       0.06049318       0.10250603       0.70708042
H        2.81811347       0.95780527      17.61329697      -0.01719940      -0.09702855      -0.43173480
4
Lattice="2.723827090108017 0.0 0.0 1.361913545054009 2.358903455549787 0.0 0.0 0.0 24.562042063818488" Properties=species:S:1:pos:R:3:forces:R:3 energy=2.859312656423768 pbc="T T F"
Pt       1.36191355       0.78630115      10.00000000       0.00386283      -0.02972350      -0.80238044
Pt       2.72382709       1.57260230      12.28102103      -0.04152769       0.13336879       0.61124974
Pt       2.70232471       0.16191101      14.65246571      -0.00217490       0.48792061       2.11967778
H        2.51926985       1.29581163      16.65731892       0.03983976      -0.59156591      -1.92854714
4
Lattice="2.723827090108017 0.0 0.0 1.361913545054009 2.358903455549787 0.0 0.0 0.0 24.562042063818488" Properties=species:S:1:pos:R:3:forces:R:3 energy=1.9704251731682376 pbc="T T F"
Pt       1.36191355       0.78630115      10.00000000       0.00020672      -0.00970849      -0.85678601
Pt       2.72382709       1.57260230      12.28102103      -0.05783903       0.03854161       1.03027248
Pt       2.73301659       0.11181126      14.75207495      -0.12441415       0.71436977       1.90954053
H        2.35141749       1.14850877      16.36204206       0.18204620      -0.74320287      -2.08302689
4
Lattice="2.723827090108017 0.0 0.0 1.361913545054009 2.358903455549787 0.0 0.0 0.0 24.562042063818488" Properties=species:S:1:pos:R:3:forces:R:3 energy=2.713998819762324 pbc="T T F"
Pt       1.36191355       0.78630115      10.00000000      -0.01195023       0.01658696      -0.79652780
Pt       2.72382709       1.57260230      12.28102103       0.05482441      -0.03515855      -0.65155846
Pt       1.41636012       2.29820240      14.48204206      -0.68445832       0.36095643       3.51938415
H        1.75304581       0.41658539      16.36204206       0.64158416      -0.34238508      -2.07129812
4
Lattice="2.723827090108017 0.0 0.0 1.361913545054009 2.358903455549787 0.0 0.0 0.0 24.562042063818488" Properties=species:S:1:pos:R:3:forces:R:3 energy=3.967528062557008 pbc="T T F"
Pt       1.36191355       0.78630115      10.00000000      -0.05389084      -0.05910041      -0.84119666
Pt       2.72382709       1.57260230      12.28102103       0.09363855       0.16103360       0.31593204
Pt       0.16998524       0.18780056      14.61875244      -0.08068483      -0.15948297       0.86329526
H        3.72957714       1.78749361      17.70818514       0.04093711       0.05754978      -0.33803043
4
Lattice="2.723827090108017 0.0 0.0 1.361913545054009 2.358903455549787 0.0 0.0 0.0 24.562042063818488" Properties=species:S:1:pos:R:3:forces:R:3 energy=3.723201515332235 pbc="T T F"
Pt       1.36191355       0.78630115      10.00000000       0.04446800       0.05660593      -0.77726716