4
Lattice="2.653985369848837 0.0 0.0 1.326992684924419 2.298418751561331 0.0 0.0 0.0 24.562042063818488" Properties=species:S:1:pos:R:3:forces:R:3 energy=1.8144341327743092 pbc="T T F"
Pt       1.32699268       0.76613958      10.00000000       0.02083571      -0.02242002      -1.37748098
Pt       2.65398537       1.53227917      12.28102103      -0.14112143       0.14550543       0.34747434
Pt       2.47522654       0.08404135      14.64818376       0.44896349      -0.15093842       0.39353591
H        1.36158327       0.10130655      15.79771371      -0.32867777       0.02785302       0.63647074
4
Lattice="2.653985369848837 0.0 0.0 1.326992684924419 2.298418751561331 0.0 0.0 0.0 24.562042063818488" Properties=species:S:1:pos:R:3:forces:R:3 energy=2.080366928847994 pbc="T T F"
Pt       1.32699268       0.76613958      10.00000000      -0.02060971      -0.01408656      -1.38749027
Pt       2.65398537       1.53227917      12.28102103       0.06111847       0.19643718      -1.17331219
Pt       0.11693026       0.09994386      14.48834317       0.05084614      -0.11263412       2.65670800
H        2.42366243       1.62826051      15.65721242      -0.09135490      -0.06971650      -0.09590550
4
Lattice="2.653985369848837 0.0 0.0 1.326992684924419 2.298418751561331 0.0 0.0 0.0 24.562042063818488" Properties=species:S:1:pos:R:3:forces:R:3 energy=3.7512978158583934 pbc="T T F"
Pt       1.32699268       0.76613958      10.00000000       0.00931639       0.03353927      -1.26324844
Pt       2.65398537       1.53227917      12.28102103      -0.02245345      -0.08640630       0.58964992
Pt       1.31808188       2.17604874      14.63643794       0.23056473      -0.15871961       1.73972833
H        2.01740190       1.47368304      17.10421407      -0.21742767       0.21158689      -1.06612992
4
Lattice="2.653985369848837 0.0 0.0 1.326992684924419 2.298418751561331 0.0 0.0 0.0 24.562042063818488" Properties=species:S:1:pos:R:3:forces:R:3 energy=3.8483611707406595 pbc="T T F"
Pt       1.32699268       0.76613958      10.00000000      -0.00743409       0.02661092      -1.26127410
Pt       2.65398537       1.53227917      12.28102103       0.01737397      -0.06772286       0.56414276
Pt       1.35068538       2.21005262      14.63542466      -0.02981400      -0.04911630       1.55355144
H        1.42511253       0.85108782      17.11266325       0.01987437       0.09022799      -0.85642040
4
Lattice="2.653985369848837 0.0 0.0 1.326992684924419 2.298418751561331 0.0 0.0 0.0 24.562042063818488" Properties=species:S:1:pos:R:3:forces:R:3 energy=1.9866254039416305 pbc="T T F"
Pt       1.32699268       0.76613958      10.00000000      -0.02201661      -0.02158596      -1.35346997
Pt       2.65398537       1.53227917      12.28102103       0.15461458       0.26618633      -0.85139644
Pt       0.14544981       0.10242710      14.50752262       0.19130269      -0.30327246       2.32935381
H        1.02692718       0.02375011      15.86204206      -0.32390040       0.05867181      -0.12448742
4
Lattice="2.653985369848837 0.0 0.0 1.326992684924419 2.298418751561331 0.0 0.0 0.0 24.562042063818488" Properties=species:S:1:pos:R:3:forces:R:3 energy=4.4598757149424415 pbc="T T F"
Pt       1.32699268       0.76613958      10.00000000      -0.01535977       0.04668250      -1.35998487
Pt       2.65398537       1.53227917      12.28102103       0.08240926      -0.18351507      -0.87236947
Pt       1.36346938       2.17543042      14.48419754      -0.06726109       0.13575426       2.26258540
H        1.56103489       0.91502889      18.57509310       0.00021160       0.00107858      -0.03023103
4
Lattice="2.653985369848837 0.0 0.0 1.326992684924419 2.298418751561331 0.0 0.0 0.0 24.562042063818488" Properties=species:S:1:pos:R:3:forces:R:3 energy=4.3300663819382095 pbc="T T F"
Pt       1.32699268       0.76613958      10.00000000      -0.02708040      -0.02815101      -1.37253213
Pt       2.65398537       1.53227917      12.28102103       0.08298133       0.09991591       0.16483241
Pt       0.10297604       0.09802927      14.58482203      -0.05604208      -0.07199141       1.22237217
H        3.15034238       2.00076213      20.43603004       0.00014141       0.00022651      -0.01467252
4
Lattice="2.653985369848837 0.0 0.0 1.326992684924419 2.298418751561331 0.0 0.0 0.0 24.562042063818488" Properties=species:S:1:pos:R:3:forces:R:3 energy=2.5766615247821534 pbc="T T F"
Pt       1.32699268       0.76613958      10.00000000       0.02438152      -0.01750073      -1.26018858
Pt       2.65398537       1.53227917      12.28102103      -0.08526756       0.05621281       1.20516157
Pt       2.49030644       0.09864576      14.73809584      -0.65745503      -0.04088851       2.54466605
H        1.99980276       0.08848608      16.73263937       0.71834111       0.00217644      -2.48963904
4
Lattice="2.653985369848837 0.0 0.0 1.326992684924419 2.298418751561331 0.0 0.0 0.0 24.562042063818488" Properties=species:S:1:pos:R:3:forces:R:3 energy=4.458422490860372 pbc="T T F"
Pt       1.32699268       0.76613958      10.00000000      -0.03470167      -0.03852516      -1.35694015
Pt       2.65398537       1.53227917      12.28102103       0.12298796       0.17129359      -0.90594602
Pt       0.09256207       0.09693473      14.48204206      -0.09181153      -0.13309368       2.30058479
H        3.10425353       2.25992024      18.39427457       0.00352524       0.00032499      -0.03769854
4
Lattice="2.653985369848837 0.0 0.0 1.326992684924419 2.298418751561331 0.0 0.0 0.0 24.562042063818488" Properties=species:S:1:pos:R:3:forces:R:3 energy=4.44740269577143 pbc="T T F"
Pt       1.32699268       0.76613958      10.00000000      -0.03129984       0.05696614      -1.37042356
Pt       2.65398537       1.53227917      12.28102103       0.16981316      -0.21711245      -0.67994756
Pt       1.40629350       2.13048720      14.50507936      -0.13807699       0.15994655       2.07699609
H        2.21046344       1.65147400      19.36204206      -0.00043632       0.00019977      -0.02662506
4
Lattice="2.653985369848837 0.0 0.0 1.326992684924419 2.298418751561331 0.0 0.0 0.0 24.562042063818488" Properties=species:S:1:pos:R:3:forces:R:3 energy=1.9572003714247472 pbc="T T F"
Pt       1.32699268       0.76613958      10.00000000       0.00819256       0.02808262      -1.35625827
Pt       2.65398537       1.53227917      12.28102103      -0.04805444      -0.20782408      -0.02219325
Pt       1.31049904       2.15190543      14.58322876       0.00832523      -0.08703133       2.42135143
H        1.38471148       0.85184098      15.86204206       0.03153690       0.26677281      -1.04289997
4
Lattice="2.653985369848837 0.0 0.0 1.326992684924419 2.298418751561331 0.0 0.0 0.0 24.562042063818488" Properties=species:S:1:pos:R:3:forces:R:3 energy=4.114197366393469 pbc="T T F"
Pt       1.32699268       0.76613958      10.00000000      -0.05901171      -0.06104391      -1.29874527
Pt       2.65398537       1.53227917      12.28102103       0.13284248       0.25202161      -0.70165694
Pt       0.15907275       0.16782350      14.50842848      -0.09057894      -0.17583776       2.77256274
H        2.75839032       0.21477352      17.36204206       0.01674817      -0.01514020      -0.77216017
4
Lattice="2.653985369848837 0.0 0.0 1.326992684924419 2.298418751561331 0.0 0.0 0.0 24.562042063818488" Properties=species:S:1:pos:R:3:forces:R:3 energy=4.211846514393088 pbc="T T F"
Pt       1.32699268       0.76613958      10.00000000       0.01529961      -0.01485866      -1.37608922
Pt       2.65398537       1.53227917      12.28102103      -0.03586946       0.03605793       1.03195763
Pt       2.57064966       0.07468325      14.70611769       0.02031660      -0.02097609       0.37295938
H        1.62462235       0.51211343      19.42413748       0.00025325      -0.00022317      -0.02882772
4
Lattice="2.653985369848837 0.0 0.0 1.326992684924419 2.298418751561331 0.0 0.0 0.0 24.562042063818488" Properties=species:S:1:pos:R:3:forces:R:3 energy=2.22222668819542 pbc="T T F"
Pt       1.32699268       0.76613958      10.00000000      -0.01882073      -0.00116702      -1.33303738
Pt       2.65398537       1.53227917      12.28102103       0.04303256      -0.08046011      -0.64878297
Pt       0.10431785       0.00748222      14.51026094       0.29075992      -0.19049254       3.54811931
H        2.10854999       1.33095716      15.98082924      -0.31497175       0.27211967      -1.56629896
4
Lattice="2.653985369848837 0.0 0.0 1.326992684924419 2.298418751561331 0.0 0.0 0.0 24.562042063818488" Properties=species:S:1:pos:R:3:forces:R:3 energy=3.8380516608604154 pbc="T T F"
Pt       1.32699268       0.76613958      10.00000000       0.01141236       0.03175133      -1.29563200
Pt       2.65398537       1.53227917      12.28102103      -0.02089741      -0.06195794       1.19109702
Pt       1.30203514       2.14042064      14.73581325       0.12234081      -0.17691274       0.93359488
H        1.69136176       1.45191298      17.39020951      -0.11285549       0.20711935      -0.82906002
4
Lattice="2.653985369848837 0.0 0.0 1.326992684924419 2.298418751561331 0.0 0.0 0.0 24.562042063818488" Properties=species:S:1:pos:R:3:forces:R:3 energy=4.298418315221184 pbc="T T F"
Pt       1.32699268       0.76613958      10.00000000       0.01738632       0.02612524      -1.37210715
Pt       2.65398537       1.53227917      12.28102103      -0.06954243      -0.08647803       0.23209864
Pt       3.92224808       2.20780764      14.59087828       0.05219597       0.06062610       1.16704822
H        2.70291154       0.85357805      19.36204206      -0.00003985      -0.00027357      -0.02703952
4
Lattice="2.723827090108017 0.0 0.0 1.361913545054009 2.358903455549787 0.0 0.0 0.0 24.562042063818488" Properties=species:S:1:pos:R:3:forces:R:3 energy=2.459565215373928 pbc="T T F"
Pt       1.36191355       0.78630115      10.00000000       0.02916197      -0.01661576      -0.97461635
Pt       2.72382709       1.57260230      12.28102103      -0.09226019       0.11886005      -0.05351803
Pt       2.58232231       0.12290145      14.64807732       0.91440392       0.85981989      -0.99759507
H        1.30136072       0.97701411      14.96204206      -0.85130572      -0.96206397       2.02572942
4
Lattice="2.723827090108017 0.0 0.0 1.361913545054009 2.358903455549787 0.0 0.0 0.0 24.562042063818488" Properties=species:S:1:pos:R:3:forces:R:3 energy=2.974339267792871 pbc="T T F"
Pt       1.36191355       0.78630115      10.00000000       0.00432948       0.03116152      -0.76977187
Pt       2.72382709       1.57260230      12.28102103      -0.02671994      -0.12314942       0.08961118
Pt       1.34055358       2.24229985      14.57435309      -0.15064301      -0.31292307       2.78623557
H        1.16956094       1.85541595      16.84972385       0.17303371       0.40491125      -2.10607481
4
Lattice="2.723827090108017 0.0 0.0 1.361913545054009 2.358903455549787 0.0 0.0 0.0 24.562042063818488" Properties=species:S:1:pos:R:3:forces:R:3 energy=2.148860164940757 pbc="T T F"
Pt       1.36191355       0.78630115      10.00000000      -0.01520551       0.02959366      -0.84928560
Pt       2.72382709       1.57260230      12.28102103       0.11604983      -0.18988164      -0.75298595
Pt       1.40262049       2.29918714      14.49271101      -0.14277235       0.76259029       3.42943668
H        2.87661437       1.20292065      16.03538301       0.04192801      -0.60230231      -1.82716513
4
Lattice="2.723827090108017 0.0 0.0 1.361913545054009 2.358903455549787 0.0 0.0 0.0 24.562042063818488" Properties=species:S:1:pos:R:3:forces:R:3 energy=1.6906983131512021 pbc="T T F"
Pt       1.36191355       0.78630115      10.00000000       0.01114753      -0.01119998      -0.91240078
Pt       2.72382709       1.57260230      12.28102103      -0.35104895      -0.01404414      -1.10480976
Pt       2.58904222       0.00461907      14.48204206      -0.10937139       0.23068351      -0.88297421
H        1.61960192       2.18537997      15.86204206       0.44927281      -0.20543939       2.90018487
4
Lattice="2.723827090108017 0.0 0.0 1.361913545054009 2.358903455549787 0.0 0.0 0.0 24.562042063818488" Properties=species:S:1:pos:R:3:forces:R:3 energy=2.6060230187113262 pbc="T T F"
Pt       1.36191355       0.78630115      10.00000000       0.01615039       0.02647362      -0.95829600
Pt       2.72382709       1.57260230      12.28102103      -0.07791138       0.33646744       0.09428287
Pt       2.63222116       0.18966057      14.65683062      -1.41126323       2.25926399      -9.67315292
H        1.46839922       2.19643636      15.86204206       1.47302425      -2.62220502      10.53716564
4
Lattice="2.723827090108017 0.0 0.0 1.361913545054009 2.358903455549787 0.0 0.0 0.0 24.562042063818488" Properties=species:S:1:pos:R:3:forces:R:3 energy=3.8422890179272287 pbc="T T F"
Pt       1.36191355       0.78630115      10.00000000       0.07843382       0.04614179      -0.79817462
Pt       2.72382709       1.57260230      12.28102103      -0.30424303      -0.17932418      -0.36592790
Pt       3.88853013       2.26278723      14.53673037       0.19155671       0.31677973       1.91584325
H        2.32753077       0.91589378      17.23219159       0.03425224      -0.18359709      -0.75174099
4
Lattice="2.723827090108017 0.0 0.0 1.361913545054009 2.358903455549787 0.0 0.0 0.0 24.562042063818488" Properties=species:S:1:pos:R:3:forces:R:3 energy=4.17267640417505 pbc="T T F"
Pt       1.36191355       0.78630115      10.00000000      -0.00427960      -0.00468249      -0.82645059
Pt       2.72382709       1.57260230      12.28102103       0.01325558       0.01604677      -0.73114800
Pt       0.00648285       0.00837576      14.48204206      -0.02933989      -0.02065727       1.69235086
H        3.45062687       2.07330882      17.97239736       0.02036391       0.00929325      -0.13475230
4
Lattice="2.723827090108017 0.0 0.0 1.361913545054009 2.358903455549787 0.0 0.0 0.0 24.562042063818488" Properties=species:S:1:pos:R:3:forces:R:3 energy=3.9803837418467225 pbc="T T F"
Pt       1.36191355       0.78630115      10.00000000       0.02696625      -0.05273899      -0.83196765
Pt       2.72382709       1.57260230      12.28102103      -0.05520545       0.16085517       0.23222335
Pt       2.64156201       0.16046091      14.60260835       0.00533118      -0.07000189       0.91064447
H        2.09189704       1.15226913      17.67860176       0.02290802      -0.03811429      -0.31090012
4
Lattice="2.723827090108017 0.0 0.0 1.361913545054009 2.358903455549787 0.0 0.0 0.0 24.562042063818488" Properties=species:S:1:pos:R:3:forces:R:3 energy=4.259259089559251 pbc="T T F"
Pt       1.36191355       0.78630115      10.00000000      -0.03815312       0.00196252      -0.84463060
Pt       2.72382709       1.57260230      12.28102103       0.14529356      -0.01688804      -0.73240554
Pt       1.44366007       2.35699768      14.48204206      -0.10722350       0.01478693       1.59875500
H        1.00187037       1.44221238      19.84383371       0.00008305       0.00013833      -0.02171888
4
Lattice="2.723827090108017 0.0 0.0 1.361913545054009 2.358903455549787 0.0 0.0 0.0 24.562042063818488" Properties=species:S:1:pos:R:3:forces:R:3 energy=4.126593717482152 pbc="T T F"
Pt       1.36191355       0.78630115      10.00000000      -0.05638584      -0.00917884      -0.86792505
Pt       2.72382709       1.57260230      12.28102103       0.14255276       0.00719909       0.43225417
Pt       0.18955598       0.04012208      14.63123907      -0.08619212       0.00214790       0.45565841
H        2.78939857       0.32021394      20.15283091       0.00002520      -0.00016815      -0.01998750
4
Lattice="2.723827090108017 0.0 0.0 1.361913545054009 2.358903455549787 0.0 0.0 0.0 24.562042063818488" Properties=species:S:1:pos:R:3:forces:R:3 energy=4.1094468025812745 pbc="T T F"
Pt       1.36191355       0.78630115      10.00000000       0.00190107       0.04294874      -0.87465030
Pt       2.72382709       1.57260230      12.28102103      -0.00450946      -0.08220795       0.85807925
Pt       1.35528764       2.17742388      14.70650268       0.00257753       0.03936025       0.03449084
H        1.17784450       1.21567305      20.31210247       0.00003085      -0.00010104      -0.01791982
4
Lattice="2.723827090108017 0.0 0.0 1.361913545054009 2.358903455549787 0.0 0.0 0.0 24.562042063818488" Properties=species:S:1:pos:R:3:forces:R:3 energy=1.3264676496282988 pbc="T T F"
Pt       1.36191355       0.78630115      10.00000000      -0.00909759       0.01396186      -0.88517535
Pt       2.72382709       1.57260230      12.28102103       0.00557955      -0.07613885       0.85815948
Pt       1.40246769       2.23163842      14.74910706      -0.02203230       0.08929648      -1.12348092
H        1.70763943       1.94258949      16.18937987       0.02555060      -0.02711974       1.15049672
4
Lattice="2.723827090108017 0.0 0.0 1.361913545054009 2.358903455549787 0.0 0.0 0.0 24.562042063818488" Properties=species:S:1:pos:R:3:forces:R:3 energy=1.847649507310976 pbc="T T F"
Pt       1.36191355       0.78630115      10.00000000      -0.03090415       0.02617923      -0.82626444
Pt       2.72382709       1.57260230      12.28102103       0.27311572      -0.20427030      -0.85085887
Pt       1.47977294       2.25551476      14.48204206       0.13746661      -0.21264516       3.98154306
H        1.71417857       2.02008914      16.27322125      -0.37967819       0.39073622      -2.30441976
4
Lattice="2.723827090108017 0.0 0.0 1.361913545054009 2.358903455549787 0.0 0.0 0.0 24.562042063818488" Properties=species:S:1:pos:R:3:forces:R:3 energy=3.028230193741379 pbc="T T F"
Pt       1.36191355       0.78630115      10.00000000       0.01268300      -0.01880351      -0.75969756
Pt       2.72382709       1.57260230      12.28102103      -0.11010391       0.13767231      -0.73578399
Pt       2.65654182       0.05304266      14.48204206      -0.60102111      -0.03653024       3.52427483
H        1.85580389       0.14035238      16.62748569       0.69844204      -0.08233856      -2.02879357
4
Lattice="2.723827090108017 0.0 0.0 1.361913545054009 2.358903455549787 0.0 0.0 0.0 24.562042063818488" Properties=species:S:1:pos:R:3:forces:R:3 energy=3.985478801804689 pbc="T T F"
Pt       1.36191355       0.78630115      10.00000000      -0.05925185       0.03786875      -0.80097663
Pt       2.72382709       1.57260230      12.28102103       0.22926606      -0.14186345      -0.49886012
Pt       1.50107775       2.27055718      14.51564164      -0.12406062       0.08237327       1.77329075
H        2.63701478       1.53841641      17.36204206      -0.04595359       0.02162144      -0.47345403
4
Lattice="2.723827090108017 0.0 0.0 1.361913545054009 2.358903455549787 0.0 0.0 0.0 24.562042063818488" Properties=species:S:1:pos:R:3:forces:R:3 energy=4.098105232852518 pbc="T T F"
Pt       1.36191355       0.78630115      10.00000000      -0.04411037       0.00389496      -0.87144929
Pt       2.72382709       1.57260230      12.28102103       0.09648297      -0.01706313       0.81341279
Pt       1.53218520       2.35036599      14.69801985      -0.05231501       0.01293933       0.08383134
H        2.84959171       1.81675414      19.72923269      -0.00005759       0.00022883      -0.02579511
4
Lattice="2.723827090108017 0.0 0.0 1.361913545054009 2.358903455549787 0.0 0.0 0.0 24.562042063818488" Properties=species:S:1:pos:R:3:forces:R:3 energy=4.162538666173546 pbc="T T F"
Pt       1.36191355       0.78630115      10.00000000       0.02398917       0.05358642      -0.86306512
Pt       2.72382709       1.57260230      12.28102103      -0.08999119      -0.14595948       0.12364796
Pt       1.29714805       2.19705009      14.58577783       0.06608481       0.09216840       0.74836797
H        0.84488354       0.26411763      20.82614227      -0.00008279       0.00020466      -0.00895052
4
Lattice="2.723827090108017 0.0 0.0 1.361913545054009 2.358903455549787 0.0 0.0 0.0 24.562042063818488" Properties=species:S:1:pos:R:3:forces:R:3 energy=1.7467288703983428 pbc="T T F"
Pt       1.36191355       0.78630115      10.00000000      -0.06518133       0.02403647      -1.00517881
Pt       2.72382709       1.57260230      12.28102103       0.46941766      -0.30964285      -1.00559866
Pt       1.54379050       2.16279792      14.50346271      -1.21866620      -0.15536740       0.83923513
H        1.29430901       0.36797411      15.46969338       0.81442988       0.44097379       1.17154229
4
Lattice="2.723827090108017 0.0 0.0 1.361913545054009 2.358903455549787 0.0 0.0 0.0 24.562042063818488" Properties=species:S:1:pos:R:3:forces:R:3 energy=1.7409405323442257 pbc="T T F"
Pt       1.36191355       0.78630115      10.00000000      -0.03753811      -0.01992142      -0.94660157
Pt       2.72382709       1.57260230      12.28102103       0.22769512       0.11101998      -0.91302943
Pt       0.17194436       0.09080918      14.52308910       0.49791807       0.30729672       0.68080324
H        3.07012737       1.76913425      15.38993396      -0.68807507      -0.39839530       1.17882776
4
Lattice="2.723827090108017 0.0 0.0 1.361913545054009 2.358903455549787 0.0 0.0 0.0 24.562042063818488" Properties=species:S:1:pos:R:3:forces:R:3 energy=2.682840353912084 pbc="T T F"
Pt       1.36191355       0.78630115      10.00000000      -0.06910612      -0.01545310      -1.01486540
Pt       2.72382709       1.57260230      12.28102103       0.15324418      -0.17017233      -1.28553545
Pt       1.45798046       2.27251704      14.48344584      -4.22923899      -1.26414859      -2.01090622
H        1.26888953       0.20273670      15.16204206       4.14510059       1.44977403       4.31130695
4
Lattice="2.723827090108017 0.0 0.0 1.361913545054009 2.358903455549787 0.0 0.0 0.0 24.562042063818488" Properties=species:S:1:pos:R:3:forces:R:3 energy=1.6919116688632272 pbc="T T F"
Pt       1.36191355       0.78630115      10.00000000       0.00894847      -0.06446450      -0.92533159
Pt       2.72382709       1.57260230      12.28102103      -0.24127954       0.21427858      -0.91376323
Pt       2.57647485       0.09277568      14.48204206       0.68710655      -0.08731416       2.46974421
H        0.80783468       0.28439477      15.84537639      -0.45477548      -0.06250018      -0.63064921
4
Lattice="2.723827090108017 0.0 0.0 1.361913545054009 2.358903455549787 0.0 0.0 0.0 24.562042063818488" Properties=species:S:1:pos:R:3:forces:R:3 energy=1.596790798787893 pbc="T T F"
Pt       1.36191355       0.78630115      10.00000000      -0.01716109      -0.04068617      -0.93103045
Pt       2.72382709       1.57260230      12.28102103      -0.03020995       0.14245687      -0.25323364
Pt       2.68504270       0.12338814      14.56459624      -0.44478032      -0.72764438      -1.25486994
H        0.37595431       0.64656620      15.86204206       0.49215135       0.62587368       2.43913412
4
Lattice="2.723827090108017 0.0 0.0 1.361913545054009 2.358903455549787 0.0 0.0 0.0 24.562042063818488" Properties=species:S:1:pos:R:3:forces:R:3 energy=4.274036777088455 pbc="T T F"
Pt       1.36191355       0.78630115      10.00000000      -0.07343122      -0.03633355      -0.85266477
Pt       2.72382709       1.57260230      12.28102103       0.24237971       0.10764336      -0.81059563
Pt       0.17933020       0.09056168      14.48204206      -0.16908245      -0.07154121       1.68532610
H        2.93726434       2.12732214      19.81344691       0.00013395       0.00023140      -0.02206598
4
Lattice="2.723827090108017 0.0 0.0 1.361913545054009 2.358903455549787 0.0 0.0 0.0 24.562042063818488" Properties=species:S:1:pos:R:3:forces:R:3 energy=4.134392976980067 pbc="T T F"
Pt       1.36191355       0.78630115      10.00000000      -0.02698527       0.03786850      -0.86800629
Pt       2.72382709       1.57260230      12.28102103       0.08142401      -0.09745228       0.43804583
Pt       1.44126841       2.23437162      14.62953295      -0.05440172       0.05945342       0.43953758
H        1.49471601       0.77819050      20.85433235      -0.00003702       0.00013010      -0.00957710
4
Lattice="2.723827090108017 0.0 0.0 1.361913545054009 2.358903455549787 0.0 0.0 0.0 24.562042063818488" Properties=species:S:1:pos:R:3:forces:R:3 energy=2.600349172565089 pbc="T T F"
Pt       1.36191355       0.78630115      10.00000000      -0.05853631       0.03304151      -0.83267754
Pt       2.72382709       1.57260230      12.28102103       0.47574437      -0.30335936      -0.75429231
Pt       1.54165557       2.24101065      14.48986853      -0.33383900      -0.03461579       3.61143494
H        1.28490000       0.91346948      16.23807159      -0.08336905       0.30493364      -2.02446508
4
Lattice="2.723827090108017 0.0 0.0 1.361913545054009 2.358903455549787 0.0 0.0 0.0 24.562042063818488" Properties=species:S:1:pos:R:3:forces:R:3 energy=1.7378224476242536 pbc="T T F"
Pt       1.36191355       0.78630115      10.00000000      -0.00111432       0.05200879      -0.86034310
Pt       2.72382709       1.57260230      12.28102103      -0.01993119      -0.26662752      -0.10331182
Pt       1.35006652       2.17675492      14.56382389       0.05896106       1.17745113       2.86946034
H        2.74320782       0.48129500      16.22508121      -0.03791555      -0.96283245      -1.90580571
4
Lattice="2.723827090108017 0.0 0.0 1.361913545054009 2.358903455549787 0.0 0.0 0.0 24.562042063818488" Properties=species:S:1:pos:R:3:forces:R:3 energy=3.983345701238264 pbc="T T F"
Pt       1.36191355       0.78630115      10.00000000      -0.03369842      -0.01942212      -0.83853042
Pt       2.72382709       1.57260230      12.28102103       0.06786839       0.04221726       0.59306842
Pt       0.11042248       0.07038123      14.65246883      -0.04102684       0.01659519       0.48875466
H        2.55289367       1.12811074      17.83421510       0.00685688      -0.03939008      -0.24329297
4
Lattice="2.723827090108017 0.0 0.0 1.361913545054009 2.358903455549787 0.0 0.0 0.0 24.562042063818488" Properties=species:S:1:pos:R:3:forces:R:3 energy=4.1753414873428625 pbc="T T F"
Pt       1.36191355       0.78630115      10.00000000       0.00558855      -0.03179992      -0.85508597
Pt       2.72382709       1.57260230      12.28102103      -0.01509315       0.10975243      -0.03356884
Pt       2.70891393       0.08243946      14.55973239       0.00963161      -0.07794274       0.89922953
H        1.30736889       1.48614855      20.64215866      -0.00012701      -0.00000977      -0.01057469
4
Lattice="2.723827090108017 0.0 0.0 1.361913545054009 2.358903455549787 0.0 0.0 0.0 24.562042063818488" Properties=species:S:1:pos:R:3:forces:R:3 energy=4.210917245550277 pbc="T T F"
Pt       1.36191355       0.78630115      10.00000000       0.03538353       0.03089901      -0.85152680
Pt       2.72382709       1.57260230      12.28102103      -0.14148833      -0.11037181      -0.35992232
Pt       4.00237754       2.28470353      14.52317258       0.10609812       0.07931262       1.23033369
H        0.94155055       1.53740714      20.17893608       0.00000694       0.00016044      -0.01888450
4
Lattice="2.863510530626377 0.0 0.0 1.431755265313188 2.479872863526699 0.0 0.0 0.0 24.562042063818488" Properties=species:S:1:pos:R:3:forces:R:3 energy=1.5572444231284095 pbc="T T F"
Pt       1.43175527       0.82662429      10.00000000      -0.04835217       0.01841476      -0.11834378
Pt       2.86351053       1.65324858      12.28102103       0.25345165      -0.13179271      -0.19369151
Pt       1.58742977       2.42228898      14.59499891      -0.21966787      -0.01839496      -0.04409159
H        3.46405615       1.29245805      15.53876245       0.01456839       0.13177291       0.35612687
4
Lattice="2.863510530626377 0.0 0.0 1.431755265313188 2.479872863526699 0.0 0.0 0.0 24.562042063818488" Properties=species:S:1:pos:R:3:forces:R:3 energy=1.552133580565183 pbc="T T F"
Pt       1.43175527       0.82662429      10.00000000       0.03772708      -0.05115442      -0.14763147
Pt       2.86351053       1.65324858      12.28102103      -0.05142515       0.18127102       0.27467638
Pt       2.83902983       0.19009770      14.65458994       0.07587660      -0.22094725      -0.48594496
H        2.17710291       0.82537693      15.91701377      -0.06217828       0.09083065       0.35890007
4
Lattice="2.863510530626377 0.0 0.0 1.431755265313188 2.479872863526699 0.0 0.0 0.0 24.562042063818488" Properties=species:S:1:pos:R:3:forces:R:3 energy=2.4573697327041515 pbc="T T F"
Pt       1.43175527       0.82662429      10.00000000       0.00826713       0.14230800      -0.17912106
Pt       2.86351053       1.65324858      12.28102103      -0.04332232      -0.22291492      -0.93153030
Pt       1.41507148       2.29429436      14.48204206      -0.29296926       5.54913855      -2.82804298
H        1.50199183       1.11431076      15.16204206       0.32802445      -5.46853161       3.93869424
4
Lattice="2.863510530626377 0.0 0.0 1.431755265313188 2.479872863526699 0.0 0.0 0.0 24.562042063818488" Properties=species:S:1:pos:R:3:forces:R:3 energy=2.7482582271614007 pbc="T T F"
Pt       1.43175527       0.82662429      10.00000000       0.00660954       0.02493636      -0.02595143
Pt       2.86351053       1.65324858      12.28102103      -0.02271724      -0.11170724       0.66554606
Pt       1.37728882       2.32540074      14.70703832      -0.32938689      -0.69811165       1.76200485
H        1.06841830       1.64070607      16.71899475       0.34549433       0.78488278      -2.40159965
4
Lattice="2.863510530626377 0.0 0.0 1.431755265313188 2.479872863526699 0.0 0.0 0.0 24.562042063818488" Properties=species:S:1:pos:R:3:forces:R:3 energy=2.7937017864196747 pbc="T T F"
Pt       1.43175527       0.82662429      10.00000000       0.06496021      -0.02224647      -0.15717824