144
Lattice="11.174675241468789 0.0 0.0 5.587337620734394 9.677552638152974 0.0 0.0 0.0 46.84306309572773" Properties=species:S:1:pos:R:3:forces:R:3 energy=38.293037546626834 pbc="T T T"
Pt       0.00497358       0.00567834      20.00501441      -0.14845346       0.03435123      -1.49317133
Pt       8.36488312       9.67613007      19.98451106       0.08253113      -0.03434172      -0.34795898
Pt      11.17833466       9.66914345      20.00561949      -0.01296607       0.04410471      -0.28507650
Pt       8.38598550       0.00442592      20.00246855       0.00122487      -0.09969427       0.06002164
Pt       1.40128303       2.42104979      19.99389498      -0.04442481       0.10487428      -0.33782884
Pt       4.18891066       2.41441619      19.99791951       0.01574595      -0.05303723      -0.11955785
Pt       6.99306628       2.41770560      19.99462311      -0.07343020       0.05446626       0.10208026
Pt       9.76804223       2.41603791      19.99932282       0.07513227       0.03562495      -0.70056039
Pt      13.96784154       4.84066887      19.99815830      -0.00672241      -0.02793581      -0.79635197
Pt       5.57906039       4.82667473      19.99704807      -0.19653745       0.07544518      -1.58322430
Pt       8.37762707       4.84269573      19.99060858      -0.02190631       0.05092610      -0.70983410
Pt      11.16304594       4.83927381      20.00259132       0.14116746       0.20334317      -1.25220728
Pt       4.19300483       7.26019617      20.00352928       0.05358797      -0.02879816      -0.94317228
Pt       6.96820617       7.25027954      19.99515503       0.03966827      -0.01203096      -1.33651245
Pt       9.78458215       7.26331159      20.00495224      -0.23009576       0.07265630      -1.26360583
Pt      12.58016908       7.26141450      19.99578000       0.11445910      -0.03354236      -1.47331762
Pt       1.39258820       0.79784655      22.28152986       0.05528618       0.08841459       0.20219158
Pt       4.18121952       0.80788952      22.27645658       0.07581773      -0.05976350       0.22705980
Pt       6.98936855       0.82271240      22.28568080      -0.05482544      -0.19151789       0.24791144
Pt       9.78141075       0.81190945      22.28087133      -0.04032827      -0.05757369       0.33762187
Pt       2.78566998       3.22027605      22.29148434       0.10337995       0.02362638       0.07600310
Pt       5.59713472       3.22081861      22.28510423      -0.13327597       0.08356677       0.12568942
Pt       8.38051488       3.22178698      22.28493870       0.05798712       0.11673632       0.21493010
Pt      11.17766438       3.22005644      22.28319748      -0.06952341       0.08055036       0.03039430
Pt       4.18731557       5.64693898      22.29065630       0.09849717      -0.02807696       0.15818225
Pt       6.98802975       5.64517353      22.27795271      -0.06771464      -0.01822732       0.21417934
Pt       9.77571604       5.64372524      22.28368359       0.04161434      -0.02036417       0.21141334
Pt      12.57603649       5.64312649      22.28272880      -0.08334952       0.01871198       0.15949661
Pt       5.59655159       8.07518589      22.28497453      -0.08353129      -0.14712933       0.17589587
Pt       8.38170296       8.06173492      22.28879577      -0.01110562       0.00142876       0.13244396
Pt      11.17605678       8.06810673      22.27691430       0.01531221      -0.03845445       0.29443839
Pt      13.96748737       8.06396263      22.28065704       0.00397595       0.06125757       0.32952109
Pt      11.17215360       1.62222630      24.56171447       0.01196000      -0.16490543      -0.15025683
Pt       2.79447319       1.61087118      24.55703526      -0.03163563       0.03943507      -0.16594955
Pt       5.58115171       1.61826653      24.55966852       0.04618704      -0.08483998      -0.20844063
Pt       8.37519459       1.61599933      24.56313739       0.06071455      -0.08711541      -0.29829940
Pt      12.56589009       4.02853097      24.54854808       0.07956048       0.10017636      -0.01639438
Pt       4.19139441       4.03008652      24.55826589      -0.06502911      -0.00784392      -0.09831385
Pt       6.98021667       4.03064950      24.56131913       0.07548323       0.03355933      -0.25947061
Pt       9.78486478       4.02331858      24.55965447      -0.08348732       0.11007845      -0.16574052
Pt      13.97375457       6.44847757      24.56267547      -0.08217581      -0.01352349      -0.23725860
Pt       5.58098024       6.44218078      24.56323501       0.10265259       0.09827888      -0.24069281
Pt       8.38428290       6.44427912      24.56822292      -0.05401246       0.04019663      -0.33271107
Pt      11.17812650       6.45058269      24.56074728      -0.00523965       0.00502625      -0.19577898
Pt      15.36629523       8.86204846      24.55647128      -0.02612061       0.15044272      -0.28761622
Pt       6.98117064       8.87827640      24.56477288       0.01101101      -0.12488467      -0.21542889
Pt       9.77182211       8.86916413      24.56306163       0.09103223       0.00599787      -0.24970555
Pt      12.57064775       8.86357503      24.56500347      -0.01634450       0.04565431      -0.35966161
Pt      11.17300488       0.00147328      26.84546209      -0.00194401      -0.10246824       0.49022713
Pt       2.78863943       0.00559273      26.83794946       0.12903519       0.03819091       0.57091451
Pt       5.60203900       0.00024786      26.83907540      -0.13532899       0.06264468       0.69724417
Pt      13.96350368       9.67109271      26.84040156       0.02828754       0.19041103       0.40350845
Pt      12.56887557       2.42129685      26.84208212       0.01571073       0.08836188       0.64593339
Pt       4.19695176       2.41628104      26.84338431      -0.05799638       0.00437833       0.99651802
Pt       6.98455052       2.42022980      26.84969836       0.16848107      -0.00503576       0.73829365
Pt       9.79083256       2.42147576      26.84534230      -0.17938717      -0.09562396       1.01014256
Pt       2.79992261       4.84472409      26.84052461      -0.07462987      -0.04570882       0.86108899
Pt       5.59351941       4.83543364      26.84400879       0.02278435       0.01845229       0.38758585
Pt       8.38610418       4.84442192      26.84427413      -0.01731895      -0.08884885       0.52773154
Pt      11.16665176       4.84099538      26.85212197       0.11582126       0.03631529       0.75575757
Pt      15.35708295       7.27596280      26.84077413       0.12362585      -0.12927353       0.66221392
Pt       6.98822482       7.25900066      26.84810403      -0.13407172      -0.03823282       0.98735076
Pt       9.77607551       7.25805274      26.84398307       0.00264309       0.01180162       0.45937982
Pt      12.57780392       7.26784366      26.84444362      -0.14042056      -0.13887352       1.38580394
H        5.54597149       9.48329902      28.38435565       0.05059237       0.14881983       0.16390423
H        2.87703381       0.09703157      28.38543941      -0.07409380      -0.06820469       0.16194300
H        5.61579756       0.09369263      28.39792846      -0.00899321      -0.08600058      -0.00755982
H        8.35551311       0.12296898      28.37872980      -0.01557934      -0.11452003       0.13586430
H       12.52323120       2.52439729      28.39786084       0.03060436      -0.09431913       0.01701016
H        4.21603791       2.34662526      28.42328083      -0.01459924       0.09783537      -0.34652767
H        7.14246949       2.39865142      28.40919820      -0.14901139       0.03014696      -0.12558657
H        9.69049892       2.33670170      28.42333067       0.13396992       0.09874374      -0.39925250
H       13.89265599       4.85163784      28.41238915       0.09751501      -0.00237981      -0.23192175
H        5.79357138       4.83554370      28.37546908      -0.14271270      -0.01371272       0.30393192
H        8.36929107       4.82575049      28.39727461       0.03349968       0.00710987       0.12454399
H       11.19558802       4.85302690      28.42268133      -0.03801556      -0.01048650      -0.19340791
H       15.37513750       7.35285670      28.39762654      -0.03448055      -0.08371693       0.03620139
H        6.91050435       7.18212002      28.43012889       0.08916844       0.08644821      -0.40962717
H        9.70084733       7.22013359      28.38914952       0.05028975       0.03978705       0.24237689
H       12.53944659       7.24323827      28.45283412       0.04094971       0.03725246      -0.74277687
H       11.10438794       0.05568177      18.39258641       0.09691080      -0.05527358       0.80075371
H        8.28433031       9.67520114      18.44154612       0.03857066      -0.00024091      -0.26837692
H       11.23392292       9.64009933      18.46670225      -0.04228488      -0.03749954      -0.24685575
H       13.99204682       9.54269746      18.48872531       0.02594578       0.05386539      -0.59840375
H       12.60473289       2.55528980      18.45658928      -0.03025237      -0.06476250      -0.31746569
H        4.19425175       2.31916587      18.46659023      -0.06855898       0.09354831      -0.33987108
H        7.02242483       2.44462937      18.47655020       0.02373925       0.02568609      -0.68769765
H        9.73572725       2.35777936      18.43836672       0.03097588       0.06545232       0.01614396
H        2.85020101       4.87347624      18.42685176      -0.06238242      -0.03815132       0.21091506
H        5.37935658       4.85585596      18.37459746       0.28045389      -0.06376105       1.04951775
H        8.35885635       4.92709920      18.42779437       0.01366799      -0.07681197       0.08959421
H       11.19111615       5.04097069      18.41402291      -0.04019509      -0.22291698       0.62374479
H        4.22772157       7.23511233      18.42517926      -0.02868580       0.03055988       0.31097317
H        6.89728275       7.20779598      18.38851063       0.07876781       0.05504861       0.75021148
H        9.68416947       7.35173795      18.40994430       0.11076930      -0.08624175       0.61808503
H       12.71853731       7.25684540      18.37931484      -0.17805405      -0.00181674       0.91634667
H        9.19082794       7.42003437      13.59152234      -1.03714764       0.71869510      -0.75838858
H        8.63316004       7.80737584      13.18064957       1.03178251      -0.71781194       0.76483154
H        0.68650214       0.69105109      32.95731603       0.12018289      -0.18795152       0.22407037
H       11.58619160       1.13031380      32.42803775      -0.12203279       0.18291447      -0.23779956
H        5.14488190       7.50530920      14.67945927       0.68690038      -0.35846889      -0.16532247
H       15.68777577       7.82979986      14.84554899      -0.68877393       0.34429440       0.19186473
H        2.33379438       2.18425480      36.34461805       0.50094402      -0.34071234      -0.02437560
H        1.72775701       2.59548514      36.37210952      -0.50207579       0.33851379       0.01828877
H       10.73099181       7.26827868       8.86207645       0.64848912      -0.38164097      -0.08789677
H       10.10768291       7.63682075       8.94840556      -0.64659727       0.38386136       0.09278135
H        7.77883018       0.95009241      33.88427146       0.11390220      -0.07600876      -0.00639511
H        7.16257777       1.36881730      33.87182930      -0.10747855       0.07025437      -0.00589837
H        4.32574135       7.20591228       0.99182699       0.04050928       0.00160231       0.50256175
H       14.81282944       7.31928954       1.25982784       0.28875163      -0.02506800       0.41551396
H        8.52389639       2.73168504      38.46536244       1.25176096      -0.13591881      -0.66480970
H        7.89700345       2.81401005      38.79749745      -1.20096827       0.18519247       0.63735801
H        5.88984789       1.66325775      16.64488310       0.13464329       0.05516585      -0.29937875
H        5.22115862       1.65641068      16.96469610      -0.19646572       0.01499288      -0.11701477
H        4.57677515       6.61845915      35.03639126       1.40963161      -0.42025173      -0.42803240
H       15.09618011       6.81448041      35.23486097      -1.41149724       0.42389628       0.42743590
H       13.55882628       9.62706834      16.20729507      -0.71520227      -0.01168129       0.31284106
H       12.88782311       9.64350362      16.58561025       0.73902893      -0.08953071      -0.50138265
H       13.67869215       9.62590521      44.83679639      -0.81030893       0.23389894       0.41059285
H        7.42709932       0.11385397      45.19776692       0.77962101      -0.16861527      -0.43951625
H        7.65932679       0.85085064      10.93647098       0.07094625       1.31181681      -0.43826669
H        7.62290263       0.17351220      11.16347304      -0.07166925      -1.31395984       0.44198990
H       14.61994182       7.65952911      45.92706037      -0.06468511       0.17723413      -0.50561059
H       14.36572099       7.03955047      46.23220261      -0.22575882      -0.21224406      -0.38042688
H        1.01673866       0.10027485       2.29859990      -0.08217272      -0.04926543      -0.04846170
H        6.92254910       9.10706570       2.25230365       0.04727565      -0.18146847      -0.03984593
H        5.77099193       2.12913736      39.97637823      -0.12413004       0.25507993      -0.01478899
H        6.01201936       1.43597365      40.07444676       0.06804142      -0.26569346       0.04723965
H       12.32746792       2.43506989       3.40006284       0.21975529      -0.45026422      -0.38357621
H        1.39616482       1.86125714       2.95400630      -0.19313742       0.67358023       0.46779579
H        8.92037335       0.93877819      30.60055391      -0.03574142       0.15131071       0.12912698
H        9.12394117       0.24663506      30.41625764       0.06244567      -0.13960345       0.05752767
H        4.94225423       5.23371948       7.87711742      -0.04539206      -0.47317043      -0.95767814
H        4.90915216       4.88885691       7.17905394       0.04516760       0.47305241       0.95811629
H        9.40928365       8.92697840      32.52800972      -0.35955542       0.38648286       0.99945986
H        9.63562729       8.68439170      31.88742479       0.35441813      -0.37875438      -1.02370381
H        2.85624721       4.37105408      14.53609397       0.33247325      -0.05865535       0.81673568
H        2.58180861       4.42347597      13.86475845      -0.32661214       0.06502938      -0.79570097
H        8.73651841       8.06940067      42.83418919      -0.06944524      -0.01696800      -0.48680988
H        8.62729922       8.04250712      42.08096166       0.07087298       0.01823427       0.48582798
H       10.12501670       0.99238471      15.32876042      -0.24174079       0.24489142      -0.51749575
H        9.79765181       1.26713738      14.69241020       0.28046906      -0.21667665       0.52602899
H       13.50631306       9.49269510      38.83340290       0.29236326      -0.14435820       1.02342486
H       13.31386709       9.57391702      38.14263243      -0.28732312       0.10343883      -1.03463638
144
Lattice="11.174675241468789 0.0 0.0 5.587337620734394 9.677552638152974 0.0 0.0 0.0 46.84306309572773" Properties=species:S:1:pos:R:3:forces:R:3 energy=38.25934814973439 pbc="T T T"
Pt       0.00538863       0.00614463      20.00531542      -0.16330826       0.03731185      -1.50166583
Pt       8.36334031       9.67600655      19.98304289       0.08235424      -0.03586715      -0.48754728
Pt      11.17886204       9.66820279      20.00606724      -0.01677928       0.05591044      -0.25307781
Pt       8.38645677       0.00484723      20.00249721       0.00062606      -0.11901895      -0.03436794
Pt       1.40183245       2.42127909      19.99318741      -0.04703448       0.12624298      -0.47717005
Pt       4.18880301       2.41406220      19.99764896       0.01952804      -0.06407678      -0.17993481
Pt       6.99371367       2.41759167      19.99409124      -0.08276407       0.05749013      -0.00394510
Pt       9.76728098       2.41541748      19.99936260       0.08172149       0.04198303      -0.75849372
Pt      13.96792064       4.84086597      19.99792810      -0.00665813      -0.02739768      -0.82139885
Pt       5.57840591       4.82567961      19.99661693      -0.20587622       0.07966975      -1.50718105
Pt       8.37754284       4.84293663      19.98980262      -0.02619980       0.05324266      -0.66685551
Pt      11.16214191       4.83932453      20.00268656       0.14959785       0.21893126      -1.25398624
Pt       4.19335279       7.26036416      20.00383544       0.05737854      -0.03004000      -0.92151994
Pt       6.96681097       7.24950253      19.99434311       0.04536146      -0.01169801      -1.35539234
Pt       9.78524117       7.26389548      20.00544416      -0.24889180       0.07583264      -1.24859595
Pt      12.58099542       7.26154952      19.99535575       0.11604932      -0.03647779      -1.39506447
Pt       1.39205806       0.79697727      22.28145752       0.06262822       0.09896357       0.19244966
Pt       4.18013299       0.80784266      22.27598333       0.08559769      -0.06317227       0.21955474
Pt       6.98987908       0.82404637      22.28606349      -0.05957349      -0.20645884       0.23774838
Pt       9.78161367       0.81245846      22.28079479      -0.04566460      -0.06471133       0.34254837
Pt       2.78501043       3.21962284      22.29250287       0.11201654       0.02747430       0.05422277
Pt       5.59805745       3.22051606      22.28534342      -0.14553010       0.08569205       0.11408551
Pt       8.38047338       3.22144400      22.28540628       0.06100971       0.12591079       0.20434462
Pt      11.17791284       3.21954211      22.28343628      -0.07348522       0.08830789       0.00706128
Pt       4.18693306       5.64723105      22.29165313       0.10721270      -0.03213596       0.15053296
Pt       6.98831736       5.64514139      22.27767517      -0.07228940      -0.01767454       0.21595623
Pt       9.77539630       5.64368878      22.28406209       0.04680642      -0.02382436       0.20757906
Pt      12.57648334       5.64325779      22.28298725      -0.09039485       0.01381968       0.15197201
Pt       5.59746203       8.07611549      22.28530501      -0.09052495      -0.16194145       0.17067756
Pt       8.38192976       8.06145644      22.28933362      -0.01466737       0.00248317       0.12287071
Pt      11.17630117       8.06835686      22.27673955       0.01480904      -0.03805079       0.30267337
Pt      13.96736908       8.06395445      22.28070380       0.00609557       0.06947301       0.33426350
Pt      11.17172047       1.62306072      24.56162838       0.01486741      -0.18199889      -0.13823666
Pt       2.79450541       1.61057711      24.55650948      -0.03452246       0.04168324      -0.15313955
Pt       5.58075157       1.61899982      24.55942678       0.04819353      -0.09882987      -0.20357996
Pt       8.37449052       1.61617324      24.56323099       0.06881867      -0.09537817      -0.29931319
Pt      12.56532811       4.02826511      24.54745604       0.08801838       0.10551243      -0.00106289
Pt       4.19145819       4.02974401      24.55801285      -0.06980597      -0.00601124      -0.08707736
Pt       6.97996793       4.03023183      24.56130094       0.08164024       0.04242295      -0.25624952
Pt       9.78553163       4.02254025      24.55939910      -0.09390492       0.11888988      -0.15687844
Pt      13.97410385       6.44810042      24.56253916      -0.08768748      -0.01159233      -0.23232079
Pt       5.58018994       6.44143526      24.56341389       0.11443981       0.10386872      -0.23632450
Pt       8.38468923       6.44357882      24.56883840      -0.06089170       0.04436285      -0.34019580
Pt      11.17840720       6.45057879      24.56061311      -0.00594542       0.00630229      -0.19151661
Pt      15.36647975       8.86122845      24.55602025      -0.02887683       0.16430585      -0.28687239
Pt       6.98079739       8.87897282      24.56512994       0.01333220      -0.13453607      -0.21170852
Pt       9.77136998       8.86902654      24.56333967       0.09703036       0.00815348      -0.24765973
Pt      12.57055754       8.86292831      24.56540211      -0.01823581       0.05159073      -0.36974189
Pt      11.17275283       0.00167984      26.84574303      -0.00176635      -0.11584209       0.53357106
Pt       2.78807388       0.00586809      26.83749483       0.14537866       0.05103255       0.64887911
Pt       5.60325238       0.00031777      26.83884515      -0.14927749       0.07148927       0.75985181
Pt      13.96295864       9.67029045      26.84029247       0.03335158       0.20409058       0.33290157
Pt      12.56884093       2.42158307      26.84217910       0.01658927       0.09764691       0.67163676
Pt       4.19772151       2.41603623      26.84349977      -0.06710194       0.00728574       0.97982901
Pt       6.98478549       2.42040513      26.85032921       0.18241182      -0.00676997       0.74811578
Pt       9.79194516       2.42163043      26.84559323      -0.19535038      -0.10623902       1.02974081
Pt       2.80038702       4.84525845      26.84019326      -0.08286101      -0.04993803       0.86087537
Pt       5.59407098       4.83503149      26.84413121       0.03252292       0.01966097       0.44793558
Pt       8.38652873       4.84485794      26.84452866      -0.01764240      -0.09556971       0.58252203
Pt      11.16605867       4.84120505      26.85276867       0.12404829       0.03754659       0.74105293
Pt      15.35628052       7.27752326      26.84072677       0.13537888      -0.14207815       0.69193381
Pt       6.98863350       7.25930464      26.84859347      -0.14712213      -0.04569416       0.98629916
Pt       9.77584602       7.25795489      26.84402110       0.00521908       0.01427759       0.43218988
Pt      12.57845088       7.26870964      26.84461743      -0.15715046      -0.15342468       1.36875522
H        5.54424922       9.46591231      28.38506532       0.05345298       0.16802444       0.11705334
H        2.88396569       0.10639680      28.38848586      -0.08471426      -0.07921930       0.08382183
H        5.61572172       0.10139833      28.40118317      -0.00826507      -0.09653053      -0.07396576
H        8.34982135       0.13072600      28.37381581      -0.01180753      -0.11565080       0.21535151
H       12.51954644       2.53563567      28.39889497       0.03391105      -0.10622102      -0.01392047
H        4.21688317       2.34377705      28.42215953      -0.01406496       0.10215251      -0.32946891
H        7.15499089       2.39658554      28.40940519      -0.16228212       0.03346574      -0.14016859
H        9.68439299       2.32901062      28.42419852       0.14552240       0.10794983      -0.42186227
H       13.88252780       4.85196958      28.41160131       0.10854196      -0.00116137      -0.23341453
H        5.80955904       4.83165799      28.37711767      -0.16147095      -0.01261383       0.24006033
H        8.36997242       4.82611792      28.40088979       0.03612375       0.00711090       0.06410738
H       11.19750241       4.85178774      28.42274066      -0.04170407      -0.00830749      -0.18546680
H       15.37545821       7.35960535      28.39905899      -0.03807984      -0.09150299       0.00622310
H        6.90504742       7.17594432      28.43038471       0.09573401       0.09321818      -0.41551140
H        9.69249219       7.21813452      28.38711607       0.05446934       0.04113020       0.27282208
H       12.53440625       7.24119277      28.45143576       0.04664341       0.04069979      -0.72348070
H       11.09618439       0.06053218      18.39310555       0.10837098      -0.06034637       0.80465531
H        8.27607379       9.67634606      18.43208600       0.04944386      -0.00118271      -0.11360369
H       11.23772026       9.63223344      18.46917745      -0.04102015      -0.03014284      -0.28931341
H       13.99637713       9.53043448      18.48518502       0.02162349       0.06806842      -0.50380439
H       12.60776644       2.56854646      18.44879712      -0.03600805      -0.08413421      -0.16456681
H        4.18861152       2.31328347      18.46332357      -0.06216799       0.09847249      -0.27536106
H        7.02726875       2.44787301      18.47104305       0.01659082       0.02051072      -0.58584648
H        9.73202349       2.35379445      18.43502209       0.03495955       0.07182789       0.07740281
H        2.85577802       4.87845678      18.42475029      -0.07056008      -0.04316805       0.24675959
H        5.36087827       4.85623194      18.38246043       0.29752320      -0.06637561       0.97547227
H        8.35370641       4.93364883      18.42976488       0.01741151      -0.07965741       0.04964312
H       11.19022520       5.05838956      18.41574871      -0.04115514      -0.24130242       0.62887079
H        4.23127784       7.23435841      18.42680750      -0.03085915       0.03139574       0.29182151
H        6.89138135       7.20436691      18.38598978       0.08484229       0.05888624       0.77690643
H        9.67798282       7.36044316      18.41235687       0.11668798      -0.09377174       0.60199249
H       12.72828548       7.25618584      18.38576732      -0.18307953      -0.00110377       0.83739811
H        9.19591838       7.41967075      13.58782797      -0.89323729       0.60422474      -0.61755872
H        8.63289556       7.80157082      13.19498427       0.88782436      -0.60320812       0.62416774
H        0.67976994       0.67675862      32.96926459       0.18475898      -0.29958701       0.35229772
H       11.58536736       1.11861891      32.44546556      -0.18675107       0.29435715      -0.36629891
H        5.14025629       7.50840104      14.66804789       0.90676671      -0.45141169      -0.24873316
H       15.68681946       7.81778519      14.85081347      -0.90911722       0.43901229       0.27539602
H        2.32744225       2.18827916      36.34459747       0.71805674      -0.48628590      -0.03505134
H        1.72582908       2.59503796      36.37252788      -0.71923685       0.48413208       0.02893725
H       10.72378142       7.25963705       8.86936157       0.79676336      -0.47138274      -0.11802367
H       10.10535506       7.62679121       8.96233578      -0.79501241       0.47341931       0.12261824
H        7.78030947       0.94816412      33.88807712       0.30699694      -0.21007946      -0.00076696
H        7.17189350       1.36760799      33.87227753      -0.30053833       0.20440580      -0.01146815
H        4.32952331       7.21421477       0.99846849       0.22729787      -0.02668085       0.36361161
H       14.82378599       7.30935168       1.27672331       0.05931896       0.00887185       0.43800315
H        8.51539992       2.74751395      38.45398388       1.37146175      -0.10752277      -0.77191591
H        7.89786794       2.80809215      38.80113886      -1.32023692       0.15552630       0.74380141
H        5.87463386       1.67423120      16.61830908       0.32413927       0.06375436      -0.38235548
H        5.21418771       1.65008795      16.94232724      -0.38456020       0.00277216      -0.01284523
H        4.56999364       6.61410959      35.04263481       1.34549308      -0.41275594      -0.40667450
H       15.08931435       6.81584438      35.24014992      -1.34710884       0.41640818       0.40591910
H       13.55580132       9.63698195      16.19051792      -0.71777183      -0.02470779       0.32009542
H       12.88541689       9.64152268      16.57046626       0.73959255      -0.07443267      -0.50031745
H       13.67515328       9.62822416      44.83198922      -0.65225112       0.19504647       0.32840961
H        7.42995719       0.11456047      45.19336077       0.62147218      -0.12913546      -0.35717845
H        7.64717321       0.85964448      10.94998516       0.05746056       1.47309566      -0.46987042
H        7.62086383       0.18210035      11.16678562      -0.05817584      -1.47503638       0.47371808
H       14.62114073       7.65180972      45.89912522       0.04933845       0.38124913      -0.55116689
H       14.35719740       7.03871136      46.19647091      -0.29704601      -0.42245361      -0.21806197
H        1.01207396       0.10105168       2.29574694      -0.07660217      -0.06320544      -0.04823519
H        6.93557300       9.11676156       2.24020736       0.04253994      -0.16370395      -0.04021180
H        5.77092238       2.12659740      39.96630626      -0.12645997       0.24942531      -0.01755421
H        6.02073965       1.43780462      40.07345185       0.06945193      -0.26061630       0.05052604
H       12.32766155       2.43049519       3.41203363       0.14339249      -0.26827508      -0.24839224
H        1.39401798       1.86801785       2.96226619      -0.11762360       0.48780054       0.33303040
H        8.92205619       0.94811338      30.59788094      -0.05517742       0.22649029       0.14209074
H        9.11749795       0.25153461      30.43057964       0.08079435      -0.21591149       0.04018300
H        4.95923160       5.22894634       7.86191374      -0.04829920      -0.31710574      -0.62544584
H        4.90642765       4.88244278       7.17876796       0.04814314       0.31709856       0.62567335
H        9.40430069       8.92865872      32.52249483      -0.39411157       0.41992033       1.07426119
H        9.63391210       8.68461223      31.88584798       0.38887835      -0.41225636      -1.09883296
H        2.86024408       4.36218576      14.53201126       0.50832075      -0.10709906       1.19678688
H        2.57995872       4.42386608      13.87414513      -0.50243348       0.11333449      -1.17620599