144
Lattice="11.174675241468789 0.0 0.0 5.587337620734394 9.677552638152974 0.0 0.0 0.0 46.84306309572773" Properties=species:S:1:pos:R:3:forces:R:3 energy=38.280417449891644 pbc="T T T"
Pt       0.00421154       0.00462521      20.00421486      -0.11984761       0.02716088      -1.44940197
Pt       8.36795043       9.67633488      19.98733688       0.07890794      -0.03012742      -0.08861025
Pt      11.17740465       9.67083197      20.00464171      -0.00728548       0.02464248      -0.33247811
Pt       8.38497452       0.00373358      20.00219389       0.00524916      -0.07315509       0.17137355
Pt       1.40050146       2.42062715      19.99547201      -0.04158683       0.07087812      -0.11905597
Pt       4.18901865       2.41522384      19.99841540       0.00838231      -0.03475618      -0.03121988
Pt       6.99179452       2.41786493      19.99570432      -0.05226590       0.05013703       0.23804510
Pt       9.76975752       2.41712458      19.99925917       0.06150028       0.02424319      -0.59071720
Pt      13.96767116       4.84034967      19.99857212      -0.00459250      -0.02779568      -0.74290001
Pt       5.58046903       4.82873608      19.99775159      -0.16361190       0.06226930      -1.63114917
Pt       8.37799009       4.84205350      19.99229615      -0.01561123       0.04554272      -0.78761226
Pt      11.16493402       4.83912277      20.00236865       0.12312037       0.16701527      -1.21622729
Pt       4.19242238       7.25986931      20.00303035       0.04280527      -0.02593652      -0.95596761
Pt       6.97100583       7.25163169      19.99647783       0.03214599      -0.00845944      -1.22704875
Pt       9.78330573       7.26231958      20.00402765      -0.19139987       0.06221119      -1.26689041
Pt      12.57848847       7.26095073      19.99644553       0.09990099      -0.02508240      -1.53791761
Pt       1.39354961       0.79955162      22.28159018       0.04107338       0.06768301       0.21967970
Pt       4.18333600       0.80796316      22.27750418       0.05740117      -0.05308969       0.23930134
Pt       6.98841905       0.81993249      22.28481346      -0.04626340      -0.16017357       0.26444826
Pt       9.78069994       0.81069221      22.28102201      -0.02736065      -0.04400161       0.32585829
Pt       2.78690643       3.22144424      22.28938800       0.08652894       0.01868344       0.11863276
Pt       5.59517489       3.22150508      22.28455661      -0.10760736       0.07710019       0.14896356
Pt       8.38059691       3.22249948      22.28414244       0.05091942       0.09827708       0.23349424
Pt      11.17714310       3.22105173      22.28282481      -0.06108607       0.06539730       0.07693332
Pt       4.18792772       5.64648774      22.28873633       0.08253653      -0.02206444       0.17458692
Pt       6.98734011       5.64531767      22.27845186      -0.05693683      -0.02008212       0.21642469
Pt       9.77607903       5.64388343      22.28296112       0.03368505      -0.01413413       0.21705127
Pt      12.57514067       5.64309039      22.28215276      -0.07038550       0.02435015       0.17666180
Pt       5.59487987       8.07326301      22.28432467      -0.07123756      -0.11669081       0.18889768
Pt       8.38131630       8.06227194      22.28771701      -0.00418781      -0.00006813       0.15319353
Pt      11.17565254       8.06759871      22.27730337       0.01429662      -0.03816109       0.28288847
Pt      13.96759783       8.06397920      22.28059231       0.00153803       0.04645958       0.31966913
Pt      11.17287908       1.62043922      24.56183325       0.00727159      -0.13120289      -0.17457072
Pt       2.79438391       1.61139565      24.55798623      -0.02545469       0.03307185      -0.18964048
Pt       5.58202871       1.61689084      24.56013961       0.04141662      -0.06043738      -0.21747755
Pt       8.37664240       1.61564654      24.56298844       0.04443046      -0.07202175      -0.29592809
Pt      12.56700351       4.02888445      24.55077049       0.06228395       0.08968960      -0.04848870
Pt       4.19119634       4.03053626      24.55879730      -0.05381653      -0.00834066      -0.12233695
Pt       6.98092827       4.03113678      24.56141930       0.06089735       0.02052795      -0.26663294
Pt       9.78362009       4.02497735      24.56006369      -0.06334119       0.09145363      -0.18204029
Pt      13.97285912       6.44905525      24.56264910      -0.06918094      -0.01550735      -0.24352257
Pt       5.58245407       6.44378743      24.56291423       0.07998908       0.08381437      -0.25007889
Pt       8.38355125       6.44562999      24.56706319      -0.04165830       0.03207863      -0.31848130
Pt      11.17751079       6.45057890      24.56095535      -0.00349773       0.00283233      -0.20458964
Pt      15.36605686       8.86375413      24.55757436      -0.02153556       0.12125581      -0.29019400
Pt       6.98199235       8.87677923      24.56403819       0.00587111      -0.10364246      -0.22340009
Pt       9.77270403       8.86943296      24.56273970       0.07987673       0.00291435      -0.25544581
Pt      12.57081342       8.86476587      24.56433991      -0.01318899       0.03594891      -0.34398252
Pt      11.17354747       0.00120994      26.84491167      -0.00220344      -0.07975357       0.41489792
Pt       2.78984248       0.00482854      26.83885039       0.09695116       0.01622135       0.41827044
Pt       5.59960236       0.00028094      26.83972854      -0.10884869       0.04341077       0.55592293
Pt      13.96448759       9.67249918      26.84051609       0.02106582       0.15849489       0.50980300
Pt      12.56911001       2.42070279      26.84198961       0.01361374       0.07043435       0.57491851
Pt       4.19543836       2.41678132      26.84316492      -0.04149941       0.00015709       1.01821971
Pt       6.98430467       2.41986867      26.84849893       0.13530123      -0.00093305       0.68717289
Pt       9.78849858       2.42101181      26.84487673      -0.14291632      -0.07230611       0.93998742
Pt       2.79894000       4.84345486      26.84107628      -0.05948402      -0.03367734       0.88019359
Pt       5.59249346       4.83623749      26.84361266       0.00843656       0.01423337       0.29489321
Pt       8.38514374       4.84348934      26.84387561      -0.01461878      -0.07515310       0.43407142
Pt      11.16794050       4.84075306      26.85071616       0.09675191       0.03159012       0.78696793
Pt      15.35868440       7.27282296      26.84110492       0.09927133      -0.10577339       0.57632285
Pt       6.98731131       7.25844498      26.84725159      -0.10719856      -0.02368835       0.94780385
Pt       9.77647109       7.25826594      26.84394744      -0.00091043       0.00620124       0.49240074
Pt      12.57657158       7.26613269      26.84423694      -0.10721578      -0.10988639       1.35290408
H        5.55075693       9.51896655      28.38327977       0.04437210       0.11402175       0.24562110
H        2.86100474       0.07590632      28.37977819      -0.05348872      -0.04721960       0.31462902
H        5.61565063       0.07566496      28.39099629      -0.01008310      -0.06339312       0.14091112
H        8.36517316       0.10445456      28.38659027      -0.02328751      -0.10483366       0.01685075
H       12.53213700       2.50280617      28.39458531       0.02300572      -0.07145662       0.09806009
H        4.21226466       2.35501541      28.42481195      -0.01346281       0.08525831      -0.36797529
H        7.11564297       2.40340499      28.40673652      -0.11862351       0.02231923      -0.06246958
H        9.70477690       2.35191457      28.41950064       0.10744641       0.07895087      -0.32094622
H       13.91170360       4.85203846      28.41483644       0.07673252      -0.00562840      -0.24900904
H        5.76003145       4.84114040      28.37352643      -0.11041938      -0.01405879       0.40157756
H        8.36882726       4.82550982      28.39127615       0.02759642       0.00662985       0.22765192
H       11.19012077       4.85501580      28.42260935      -0.02912752      -0.01398295      -0.21160644
H       15.37383098       7.33829798      28.39358436      -0.02684438      -0.06698650       0.12187184
H        6.92107584       7.19398123      28.42672522       0.07428406       0.07153504      -0.35433018
H        9.71571695       7.22300393      28.39185386       0.04159377       0.03713984       0.20381625
H       12.54892257       7.24812604      28.45048102       0.02889123       0.02825848      -0.71086407
H       11.11950301       0.04421504      18.39357159       0.07534619      -0.04269240       0.76612711
H        8.30215265       9.67184710      18.45827540       0.02027726       0.00168099      -0.55487752
H       11.22423043       9.65455754      18.46257731      -0.04230236      -0.05182573      -0.18029426
H       13.98744100       9.56637134      18.49192360       0.03146825       0.03602347      -0.70516622
H       12.59576380       2.52953914      18.46851911      -0.01936092      -0.03739747      -0.56011873
H        4.20259667       2.33238520      18.47125995      -0.07856701       0.08545705      -0.43669009
H        7.01465941       2.43910437      18.48368073       0.03494232       0.03350353      -0.80972248
H        9.74358259       2.36801443      18.44444214       0.02363255       0.05174962      -0.09869771
H        2.83933336       4.86446605      18.43119922      -0.04723220      -0.02899150       0.13577431
H        5.41808729       4.85385140      18.36849015       0.23079278      -0.05488766       1.08656394
H        8.36663621       4.91279084      18.42442258       0.00810000      -0.06837309       0.16100506
H       11.19361868       5.00380610      18.41314447      -0.03884423      -0.17999935       0.58064669
H        4.21984577       7.23621885      18.42402445      -0.02273472       0.02838498       0.31701860
H        6.90950336       7.21586492      18.39850740       0.06396700       0.04432068       0.62225330
H        9.69675445       7.33530099      18.40735473       0.09677710      -0.07111466       0.62224406
H       12.69565227       7.25834944      18.37381141      -0.15496555      -0.00381963       0.97568876
H        9.17357413       7.42529505      13.59397626      -0.94320387       0.68216795      -0.76601499
H        8.63981409       7.81230954      13.15722641       0.93785214      -0.68148148       0.77249390
H        0.70204624       0.71966076      32.93187763      -0.02326437       0.03888845      -0.05097367
H       11.58638782       1.15500942      32.39350671       0.02191094      -0.04458833       0.03734759
H        5.15649293       7.49553943      14.70001224      -0.02126354       0.00438656       0.01965994
H       15.68749440       7.85553187      14.83544744       0.02034000      -0.02182095       0.00652417
H        2.34996979       2.17293375      36.34738089      -0.09205964       0.06216337       0.00157300
H        1.73031631       2.59694838      36.36875956       0.09072498      -0.06432129      -0.00780947
H       10.74687450       7.28215647       8.84760739       0.12748353      -0.07350604      -0.01261152
H       10.11040772       7.66076401       8.92134163      -0.12498416       0.07618231       0.01779975
H        7.77531253       0.95436500      33.87456227      -0.29466414       0.19632097      -0.01103466
H        7.14309856       1.37340316      33.86956544       0.30136418      -0.20252067      -0.00155603
H        4.31994116       7.18838486       0.97989461      -0.40597284       0.10268062       0.80350351
H       14.79180746       7.33779259       1.22890888       0.83474267      -0.14174621       0.38342658
H        8.54746403       2.69772007      38.48472681       0.31083483      -0.02921982      -0.14942199
H        7.88997607       2.82922303      38.79513386      -0.25954413       0.08424015       0.12273265
H        5.92073908       1.64479182      16.69386625      -0.18115300       0.06405956      -0.17561947
H        5.23800975       1.67085937      17.00377050       0.11513555       0.01299436      -0.28125325
H        4.59949926       6.62018007      35.02083761       0.66213083      -0.19168706      -0.20465854
H       15.10195230       6.81654716      35.22757440      -0.66425997       0.19568641       0.20427777
H       13.56183477       9.60845293      16.24055111      -0.60256201       0.00796168       0.23569947
H       12.89255269       9.64920139      16.61198994       0.63055462      -0.11355458      -0.44279826
H       13.68016889       9.62446172      44.84676652      -0.83187073       0.23490398       0.41926545
H        7.42638856       0.11049382      45.20622923       0.80132163      -0.17094752      -0.44843000
H        7.68569572       0.84357937      10.90606998       0.01527672       0.16874948      -0.06039522
H        7.62506567       0.14716869      11.15920023      -0.01614550      -0.17144091       0.06363635
H       14.61905251       7.67764131      45.98157936      -0.32069734      -0.35139528      -0.36336917
H       14.38093734       7.03949612      46.29985190      -0.06932132       0.33300212      -0.79066569
H        1.02688396       0.10066421       2.30664573       0.02254806      -0.29471299      -0.06213406
H        6.89953280       9.08433480       2.27481784      -0.05879265       0.05761560      -0.02600028
H        5.76934670       2.13755440      39.99750539      -0.04435745       0.02790676       0.01890250
H        5.99454777       1.42997898      40.07575680      -0.01193429      -0.03761833       0.01348801
H       12.32715902       2.43590955       3.37263118       0.21321645      -0.43310699      -0.35142356
H        1.39950402       1.85226937       2.94327762      -0.18535805       0.66336167       0.43470725
H        8.91692154       0.91988924      30.60900118       0.03986110      -0.09519999       0.05967788
H        9.13694342       0.23485931      30.39110961      -0.01135811       0.10867411       0.13327725
H        4.90797949       5.24077526       7.89860437       0.01113082      -0.53420508      -1.12865674
H        4.91488001       4.90499611       7.18874560      -0.01124009       0.53412437       1.12950778
H        9.41488630       8.92714348      32.54699492      -0.09134359       0.10154881       0.25162488
H        9.63951113       8.68068028      31.88479851       0.08637699      -0.09356657      -0.27597451
H        2.85172742       4.38713905      14.54891715      -0.08540486       0.01685487      -0.22502194
H        2.58707187       4.42377988      13.84208763       0.09122789      -0.01023813       0.24689715
H        8.75296332       8.05905348      42.85922644      -0.11200394      -0.02367781      -0.72963798
H        8.63523273       8.03401086      42.09978468       0.11340982       0.02494999       0.72860467
H       10.13921530       0.99842983      15.36344843      -0.37803626       0.32840472      -0.84666228
H        9.82329997       1.24002676      14.69493608       0.41343805      -0.29871386       0.85772961
H       13.51264727       9.50731059      38.84284281       0.00578807      -0.02647285      -0.00448709
H       13.30539484       9.57980120      38.12821060      -0.00134006      -0.02093855      -0.00813728
144
Lattice="11.174675241468789 0.0 0.0 5.587337620734394 9.677552638152974 0.0 0.0 0.0 46.84306309572773" Properties=species:S:1:pos:R:3:forces:R:3 energy=38.288160858038424 pbc="T T T"
Pt       0.00456373       0.00516138      20.00465993      -0.13384882       0.03076145      -1.47964120
Pt       8.36640942       9.67621001      19.98598950       0.08205779      -0.03211977      -0.20335551
Pt      11.17783323       9.67001769      20.00514520      -0.00988564       0.03391465      -0.30547330
Pt       8.38548478       0.00402792      20.00233646       0.00266058      -0.08379200       0.14054783
Pt       1.40086707       2.42083181      19.99467016      -0.04310018       0.08579180      -0.20925541
Pt       4.18898615       2.41480840      19.99818854       0.01197723      -0.04289166      -0.06236777
Pt       6.99245793       2.41773660      19.99514221      -0.06351371       0.05239112       0.19085017
Pt       9.76886160       2.41657313      19.99930669       0.06854484       0.02968879      -0.64081281
Pt      13.96773865       4.84049144      19.99839229      -0.00574590      -0.02792424      -0.77171254
Pt       5.57975206       4.82771112      19.99746046      -0.18140806       0.06933906      -1.62314498
Pt       8.37779702       4.84239566      19.99143275      -0.01865901       0.04827452      -0.75412494
Pt      11.16396147       4.83921244      20.00251994       0.13266508       0.18602833      -1.24113071
Pt       4.19269264       7.26003014      20.00325207       0.04890779      -0.02757920      -0.95887345
Pt       6.96960986       7.25096972      19.99590694       0.03509736      -0.01049910      -1.29855525
Pt       9.78392996       7.26277214      20.00452396      -0.21113978       0.06860424      -1.27227223
Pt      12.57931203       7.26121680      19.99612208       0.10868671      -0.03007060      -1.51981783
Pt       1.39309780       0.79870527      22.28156740       0.04772302       0.07777125       0.21168871
Pt       4.18229796       0.80789539      22.27700319       0.06635015      -0.05605879       0.23384827
Pt       6.98886197       0.82130105      22.28528563      -0.05011312      -0.17573363       0.25702342
Pt       9.78110186       0.81129896      22.28096088      -0.03415248      -0.05079575       0.33209735
Pt       2.78628055       3.22087079      22.29045009       0.09517916       0.02080717       0.09766748
Pt       5.59614923       3.22114152      22.28484451      -0.12043665       0.08073239       0.13771370
Pt       8.38053660       3.22212805      22.28455202       0.05455367       0.10765853       0.22422001
Pt      11.17740343       3.22052843      22.28299973      -0.06561096       0.07328750       0.05391989
Pt       4.18758995       5.64670424      22.28967880       0.09070519      -0.02495847       0.16623263
Pt       6.98766551       5.64523970      22.27821746      -0.06210860      -0.01930333       0.21449661
Pt       9.77593057       5.64378015      22.28330335       0.03718124      -0.01718808       0.21481106
Pt      12.57559524       5.64305664      22.28244026      -0.07709634       0.02217731       0.16812265
Pt       5.59569374       8.07418502      22.28467287      -0.07733828      -0.13159549       0.18175361
Pt       8.38149435       8.06200922      22.28826694      -0.00761458       0.00012933       0.14287107
Pt      11.17585020       8.06784216      22.27708138       0.01499853      -0.03874858       0.28847858
Pt      13.96754306       8.06396519      22.28060849       0.00267215       0.05359259       0.32485250
Pt      11.17253681       1.62135717      24.56178503       0.00958482      -0.14800300      -0.16208389
Pt       2.79444609       1.61112603      24.55752747      -0.02886578       0.03668836      -0.17810908
Pt       5.58160439       1.61752763      24.55990091       0.04365014      -0.07164997      -0.21292824
Pt       8.37593444       1.61581638      24.56305303       0.05238032      -0.07949363      -0.29706940
Pt      12.56644634       4.02872548      24.54967137       0.07079045       0.09492308      -0.03202078
Pt       4.19127624       4.03033088      24.55853984      -0.05919323      -0.00841651      -0.10997612
Pt       6.98055091       4.03092966      24.56138081       0.06816355       0.02630779      -0.26303211
Pt       9.78419638       4.02411568      24.55988313      -0.07279411       0.10096106      -0.17422336
Pt      13.97333230       6.44879128      24.56267006      -0.07603370      -0.01491548      -0.24061002
Pt       5.58177083       6.44294953      24.56309856       0.09082448       0.09154311      -0.24567381
Pt       8.38392191       6.44496383      24.56767431      -0.04785081       0.03602013      -0.32607350
Pt      11.17779762       6.45055096      24.56088405      -0.00418241       0.00401478      -0.20063399
Pt      15.36617853       8.86289243      24.55701139      -0.02388787       0.13598000      -0.28927433
Pt       6.98156941       8.87755069      24.56438742       0.00845482      -0.11469307      -0.21932746
Pt       9.77226209       8.86928958      24.56285505       0.08548918       0.00416750      -0.25211751
Pt      12.57071108       8.86415850      24.56467211      -0.01440049       0.04034987      -0.35138217
Pt      11.17328834       0.00132019      26.84521756      -0.00212322      -0.09009635       0.44612423
Pt       2.78922160       0.00522822      26.83838180       0.11300102       0.02617486       0.49148467
Pt       5.60083863       0.00025377      26.83938615      -0.12167259       0.05302644       0.62906593
Pt      13.96401745       9.67180823      26.84048933       0.02445762       0.17527315       0.45802715
Pt      12.56895208       2.42099361      26.84202032       0.01495277       0.07964996       0.61738312
Pt       4.19618320       2.41653817      26.84329781      -0.04972154       0.00178872       1.00701916
Pt       6.98437104       2.42002444      26.84908978       0.15263072      -0.00287475       0.71801251
Pt       9.78967956       2.42125911      26.84511681      -0.16161314      -0.08403986       0.97941554
Pt       2.79944468       4.84409484      26.84083887      -0.06696696      -0.03947004       0.87036300
Pt       5.59303344       4.83586230      26.84382750       0.01477073       0.01634425       0.33956587
Pt       8.38563806       4.84396180      26.84404560      -0.01612159      -0.08215266       0.47710088
Pt      11.16728729       4.84085332      26.85144800       0.10641026       0.03473278       0.77128989
Pt      15.35786875       7.27441402      26.84091608       0.11168873      -0.11769688       0.61566460
Pt       6.98777977       7.25870962      26.84768864      -0.12040631      -0.03047092       0.97175908
Pt       9.77629204       7.25815248      26.84396034       0.00044274       0.00941821       0.48198906
Pt      12.57717159       7.26699431      26.84434544      -0.12343842      -0.12480444       1.37761343
H        5.54832791       9.50077753      28.38352184       0.04735535       0.13054931       0.21133699
H        2.86942908       0.08639696      28.38239282      -0.06353916      -0.05706950       0.24156801
H        5.61633639       0.08513532      28.39452675      -0.01003810      -0.07489444       0.06421459
H        8.36080364       0.11458414      28.38273635      -0.01952547      -0.11079579       0.07426195
H       12.52773679       2.51367999      28.39663253       0.02678601      -0.08304330       0.05040160
H        4.21416716       2.35023034      28.42403927      -0.01406599       0.09223010      -0.35718307
H        7.12914657       2.40081682      28.40832085      -0.13421160       0.02655127      -0.09977090
H        9.69736393       2.34449813      28.42172653       0.12111799       0.08885348      -0.36486116
H       13.90242404       4.85215985      28.41368054       0.08706219      -0.00435905      -0.24047171
H        5.77700834       4.83891592      28.37445295      -0.12605862      -0.01425754       0.35455850
H        8.36915995       4.82570247      28.39399063       0.03040150       0.00677434       0.18035622
H       11.19285813       4.85481243      28.42265716      -0.03356190      -0.01306712      -0.20246102
H       15.37464016       7.34587017      28.39534030      -0.03071363      -0.07520889       0.08290189
H        6.91603586       7.18823935      28.42875674       0.08164899       0.07894110      -0.38652375
H        9.70842237       7.22187823      28.39086574       0.04622304       0.03849430       0.21663886
H       12.54440851       7.24526537      28.45232034       0.03480605       0.03346985      -0.73574769
H       11.11224204       0.05003508      18.39240708       0.08592191      -0.04920629       0.79240608
H        8.29315305       9.67380222      18.45092434       0.02821837       0.00072531      -0.42781231
H       11.22937183       9.64767407      18.46482765      -0.04248106      -0.04491898      -0.21693376
H       13.98892395       9.55437516      18.49151692       0.02918896       0.04239235      -0.67804313
H       12.60053266       2.54234422      18.46362371      -0.02435889      -0.04864399      -0.45893013
H        4.19918235       2.32550505      18.46964177      -0.07413622       0.08885065      -0.40146467
H        7.01818427       2.44141397      18.48109183       0.03003203       0.03015493      -0.77029663
H        9.73969648       2.36203650      18.44175609       0.02700841       0.05896826      -0.04646241
H        2.84462379       4.86900609      18.42893931      -0.05449916      -0.03368428       0.17528729
H        5.39885983       4.85513722      18.37002524       0.25708643      -0.05999413       1.08504784
H        8.36324876       4.92018709      18.42573791       0.01054487      -0.07333404       0.13128182
H       11.19249480       5.02296122      18.41309752      -0.03981277      -0.20278241       0.60927129
H        4.22424359       7.23569828      18.42396185      -0.02642734       0.02964739       0.32391530
H        6.90333244       7.21198038      18.39238945       0.07199295       0.04982361       0.70366293
H        9.69038806       7.34369599      18.40815478       0.10425413      -0.07915630       0.62740964
H       12.70730559       7.25728491      18.37533016      -0.16796941      -0.00227028       0.96129775
H        9.18384944       7.42210911      13.59331608      -1.05225897       0.74406087      -0.81015080
H        8.63540883       7.81080717      13.16804309       1.04688227      -0.74328411       0.81656235
H        0.69386535       0.70519058      32.94518179       0.04001048      -0.05792876       0.06842503
H       11.58636651       1.14254546      32.41025707      -0.04162668       0.05266160      -0.08181456
H        5.15082314       7.50068616      14.68984562       0.34394190      -0.19074270      -0.06599354
H       15.68778145       7.84215935      14.84055474      -0.34529662       0.17487437       0.09237563
H        2.34107034       2.17884070      36.34563082       0.22795531      -0.15635085      -0.01088220
H        1.72931012       2.59625400      36.37044777      -0.22913416       0.15413277       0.00470769
H       10.73881576       7.27544440       8.85510560       0.39609751      -0.23247762      -0.04815908
H       10.10895939       7.64838471       8.93491475      -0.39392209       0.23497596       0.05323135
H        7.77721701       0.95160215      33.87985405      -0.09734455       0.06653604      -0.01013169
H        7.15291289       1.37059981      33.87085705       0.10386332      -0.07245807      -0.00235744
H        4.32301743       7.19733909       0.98531100      -0.19085120       0.04821256       0.65742701
H       14.80223022       7.32901531       1.24396572       0.56794411      -0.07874647       0.38963631
H        8.53512087       2.71508603      38.47570793       0.85490239      -0.11160774      -0.42849752
H        7.89401555       2.82169356      38.79535086      -0.80414701       0.16343193       0.40150684
H        5.90521940       1.65425769      16.67034816      -0.01643218       0.05568727      -0.23917791
H        5.22970699       1.66366371      16.98557770      -0.04707947       0.01782032      -0.19810660
H        4.58648974       6.62043575      35.02937890       1.16633224      -0.34198633      -0.35703653
H       15.10033467       6.81508900      35.23107955      -1.16833174       0.34578615       0.35652101
H       13.56108170       9.61761604      16.22399180      -0.68059343       0.00052965       0.28653404
H       12.89021408       9.64663076      16.59925790       0.70642066      -0.10385818      -0.48370245
H       13.68015653       9.62448105      44.84165848      -0.87402523       0.24830817       0.44318521
H        7.42577616       0.11246069      45.20251119       0.84335947      -0.18360969      -0.47227183
H        7.67254411       0.84584795      10.92188690       0.05772590       0.81074321      -0.28164586
H        7.62425567       0.16098062      11.16073046      -0.05845352      -0.81321019       0.28506878
H       14.61929050       7.66801879      45.95451321      -0.18703671      -0.06282543      -0.44514772
H       14.37353149       7.04014977      46.26695719      -0.15120274       0.03528222      -0.56949759
H        1.02207973       0.10003602       2.30255060      -0.04695478      -0.12476716      -0.05400345
H        6.91059076       9.09609709       2.26354399       0.01141390      -0.10939273      -0.03425867
H        5.77060090       2.13283611      39.98672686      -0.09402473       0.17636690      -0.00071168
H        6.00326847       1.43324840      40.07533477       0.03800425      -0.18648008       0.03305205
H       12.32712895       2.43659146       3.38691825       0.23962478      -0.49801168      -0.40965930
H        1.39779429       1.85582749       2.94797734      -0.21236439       0.72499639       0.49333200
H        8.91807052       0.92977340      30.60443635       0.00534789       0.01197440       0.09302560
H        9.13033096       0.24072745      30.40310002       0.02226575       0.00066849       0.09708975
H        4.92543114       5.23796115       7.88965807      -0.02183021      -0.53971314      -1.11779952
H        4.91156387       4.89680195       7.18275427       0.02168726       0.53957224       1.11854923
H        9.41280390       8.92653799      32.53667913      -0.25057358       0.27276707       0.70727658
H        9.63724703       8.68330239      31.88717797       0.24552083      -0.26493651      -0.73142493
H        2.85356547       4.37972011      14.54273355       0.11101741      -0.01298099       0.28681019
H        2.58385187       4.42323898      13.85386145      -0.10518666       0.01947868      -0.26525894