144
Lattice="11.174675241468789 0.0 0.0 5.587337620734394 9.677552638152974 0.0 0.0 0.0 46.84306309572773" Properties=species:S:1:pos:R:3:forces:R:3 energy=40.01229816858829 pbc="T T T"
Pt      11.13865476       0.01806863      19.82181144       0.03493718       0.32014632      -0.19150580
Pt       2.79545255       0.06087235      19.81947735      -0.33839011      -0.26818407      -0.68374407
Pt       5.66726130       0.14509655      19.73903058      -0.76279467      -0.92520332      -0.25245690
Pt      13.89535378       9.66021776      19.98458028       0.42317533       0.21308379      -1.10104060
Pt      12.56521908       2.54406159      19.74603730      -0.43884543      -0.81235349       0.61027682
Pt       4.10327400       2.40298096      19.90088864       0.55096197       0.46684656      -0.24331740
Pt       6.92397677       2.51268038      19.69790208      -0.47658280      -0.29365394       0.68410015
Pt       9.58921071       2.44257704      19.71130204       0.53522480       0.06410661       0.52302283
Pt      13.98996472       4.88130847      19.78953829      -0.43989703      -0.21118838       0.40062007
Pt       5.55526365       4.86881799      19.81307466       0.33138669       0.00846330      -0.61597955
Pt       8.29233093       4.93032810      19.77299115       0.14266641       0.39047500       0.15750399
Pt      11.13091678       4.81644238      19.90346100      -0.10307579       1.06946516      -0.52778810
Pt       4.21904522       7.25861277      19.96119421      -0.47142619      -0.17973915      -0.25231034
Pt       6.90035723       7.36177191      19.86279549       1.05601752      -0.33769000      -0.26307505
Pt       9.72933908       7.40200164      19.83640098       0.69675821      -0.38634506      -0.21707672
Pt      12.59217210       7.22458976      19.98607116      -0.81019711      -0.01730944      -1.31732070
Pt       1.35961827       0.85360539      22.24823639      -0.11662422      -0.04889776      -0.21546669
Pt       4.22080743       0.78014420      22.19462207       0.19376194       0.16068907       0.31699288
Pt       7.01360216       0.76545331      22.23388484      -0.29212928       0.49838269       0.63611847
Pt       9.74892503       0.85421996      22.15324618       0.57082379      -0.10357716       0.67365688
Pt       2.81507255       3.11816534      22.22504776      -0.81448030       0.53877652       0.43610722
Pt       5.59427378       3.17312153      22.18675689       0.32871506       0.31317917      -0.00371267
Pt       8.40746156       3.20969517      22.19645999      -0.70052284       0.45233062       0.10085616
Pt      11.11129414       3.29542285      22.21051983       0.44684130      -0.50487524       0.11482933
Pt       4.04165668       5.48449429      22.18545716       1.15505254       0.89499903       0.55877638
Pt       7.00868719       5.66669253      22.22718714      -0.16872942      -0.20188792       0.07874312
Pt       9.77957037       5.75257261      22.27406099      -0.11710501      -0.14953460      -0.33051893
Pt      12.52772352       5.67069609      22.33096309       0.14250597      -0.29720208       0.12656026
Pt       5.60602385       8.05020281      22.15720528       0.09791816       0.37081146       1.11944020
Pt       8.42881447       8.19112026      22.24503897      -0.65986878      -0.74730146       0.16402483
Pt      11.16744125       8.08960048      22.29567916       0.33890304       0.17016900       0.21897933
Pt      14.02347121       8.05411684      22.24429799      -0.21943235      -0.24623662       0.74932569
Pt      11.22325594       1.70465809      24.60387239      -0.17240147      -0.30863112      -0.25270551
Pt       2.79537536       1.65506608      24.63340503       0.44299519      -0.43975919      -0.09522004
Pt       5.57517506       1.62516773      24.54051640       0.32907397      -0.35376558       0.00579758
Pt       8.47173342       1.63106600      24.66543350      -0.46119347       0.42877057      -0.73019129
Pt      12.57625088       3.96835187      24.70126745       0.23219840       0.78246003      -0.76644951
Pt       4.13763310       4.06502690      24.56145587       0.49984461      -0.22553101       0.15228079
Pt       6.88929658       3.98038615      24.57030466       0.70673358       0.28217730      -0.68276346
Pt       9.80095356       4.18128672      24.48551829      -0.61248875      -0.69086111       0.58023632
Pt      14.04675844       6.41293113      24.65927824       0.11318203       0.47185558      -0.34671947
Pt       5.73924687       6.48965898      24.53107758      -1.01048553       0.03832487       0.00808329
Pt       8.37267733       6.57852679      24.60461851       0.73604882      -0.43695876       0.24328808
Pt      11.31262557       6.42229763      24.73780580      -0.46474263       0.84432644      -0.60779214
Pt      15.51465947       8.99380362      24.55193242      -0.27145144      -0.76118129      -0.19806571
Pt       7.05214302       8.95515551      24.63031571       0.03227712      -0.29863134      -0.09711494
Pt       9.86049269       8.92073365      24.67522669       0.06190806      -0.43089506      -0.57538491
Pt      12.77955460       8.88859712      24.65919379      -0.89728498      -0.38441029      -0.44968700
Pt       0.05311359       0.03434310      26.98840489       0.37773931       0.09909829       0.84648949
Pt       8.49499621       9.56905752      27.06502998      -0.34924865       0.72864759      -0.30007631
Pt      11.19859989       9.66841919      26.97608393       0.91395497      -0.47557956       0.51378822
Pt      13.98394098       9.65259588      27.02635276       0.66146880      -0.17765836       0.92286003
Pt       1.59561680       2.41380418      27.06619301      -0.72440940      -0.65956926      -1.12179601
Pt       4.32642230       2.41209135      26.99680451      -0.69955611       0.05358771       1.04486251
Pt       6.98477514       2.36369927      26.97164092       0.10577159      -0.18453966       0.20132510
Pt       9.79951986       2.34824732      26.97782427       0.24632688       0.24752140       0.31329125
Pt       2.79257120       4.75543756      27.09503703       0.28799778       0.86636621      -0.82871318
Pt       5.61733173       4.82734663      26.93540254      -0.22795968       0.23082492      -0.24497138
Pt       8.28628878       4.73522488      26.85929253       0.93837637       0.58671087      -0.01635196
Pt      11.10129908       4.74480759      26.96072135       0.48151135       0.21098860       0.44587433
Pt       4.36086148       7.22443072      26.84841337      -0.54989475       0.27005765       0.13189065
Pt       7.05236101       7.31721515      27.20552674      -0.03588926      -0.42758965      -0.64272827
Pt       9.86020639       7.16095937      27.06837099      -0.55647856       0.33539993      -0.05447371
Pt      12.66244274       7.24417533      27.07361207      -0.03735196      -0.36126986      -0.10135470
H        0.11071563       0.12677028      28.58247359      -0.08551490      -0.06216182      -0.68814731
H        2.92582825       0.16548118      28.57553237       0.04501591      -0.10827611       0.38635662
H       11.65781732       9.52225551      28.48802627      -0.43462470       0.11547545      -0.34077534
H       14.16260526       9.53504183      28.61915086      -0.12927456       0.11642548      -0.77409518
H       12.50062293       2.56559677      28.52175487      -0.07092440       0.06655301       1.42414653
H        4.51559858       2.57447791      28.60748760      -0.32934523      -0.23179603      -1.07686377
H        6.64728605       2.23050595      28.49210102       0.34353182       0.13231875      -0.05587291
H        9.98446261       2.34874453      28.52989829      -0.14489427       0.03782941      -0.09184316
H        2.94800670       5.10548387      28.56155611      -0.00393122      -0.07697626       0.75271648
H        5.53991208       4.75366827      28.46119719       0.06983940       0.09544116       0.47425184
H        8.40202349       4.54116186      28.38727202      -0.08202000       0.06418811       0.24978578
H       10.99148220       4.97224107      28.50290996       0.03064112      -0.19209099      -0.06134267
H        4.51671197       7.22678562      28.39116001      -0.15328327      -0.00556618       0.17048061
H        6.79140426       7.52650322      28.70499245       0.16455112      -0.11899709       0.19787957
H        9.66976519       7.20783372      28.61364820       0.09252629      -0.04222420      -0.03462017
H       12.57406604       7.16657001      28.62303955       0.08193412       0.04838020       0.01847261
H        5.58601995       9.59425337      18.26543082      -0.00646195      -0.05620201       0.05275518
H        8.40579057       9.65233512      18.22645170      -0.04086434       0.04141251       0.63093692
H        5.79715645       0.03940189      18.17486087      -0.14852415       0.04997557       0.41932178
H        8.14934130       0.26917751      18.44470715       0.20704350      -0.24548921       0.10590684
H        1.87164474       2.51532260      18.30650705      -0.07136792       0.02010731      -0.69716960
H        3.99694358       2.43346002      18.36534003       0.16751458       0.01803192      -0.38787973
H        6.82802745       2.34252955      18.17991066       0.02345360       0.12217780      -0.38319135
H       10.88129006       2.20910531      18.79589202       0.64753652      -0.10088547      -0.40741241
H       13.88595660       4.90628322      18.26599503       0.02674153       0.02954224      -0.50001508
H        5.94796240       5.00147721      18.26485447      -0.48056287      -0.16538057       0.65933681
H        9.11087355       3.78662794      18.75314876      -0.02161218       0.00123464      -0.35931736
H       11.18218951       4.93670641      18.32372867       0.02848088      -0.06051066       0.46368745
H        4.30216312       6.97858154      18.45271077      -0.07387088       0.13908333      -0.53829676
H        7.84426422       6.12361086      18.66593210       0.03986187       0.00591071       0.33175409
H       10.03410622       7.29684457      18.29409279      -0.23199812       0.11280202       0.34397739
H       12.36373639       7.09294182      18.38320747       0.32884541       0.18763013       0.95961601
H       11.18441224       4.69442769      11.02173514       0.03163640      -0.82849258      -0.13843206
H       11.15657243       5.41132896      11.14318349      -0.03845496       0.82483464       0.13885012
H       12.33577597       5.19676463      34.64114356      -0.85088658      -0.09901396       0.54303449
H       11.68368026       5.12100489      35.05793322       0.85087943       0.09878848      -0.54362178
H        1.31628721       1.43807288       2.01558568      -0.05116187       0.10996455      -0.10828125
H        1.55767382       0.93529519       2.50798917       0.05317942      -0.10983574       0.10614543
H        5.20115966       6.74127477      43.77530285       0.17369244       0.43593726       0.52080888
H        5.01644617       6.28860207      43.23189662      -0.18306924      -0.43223590      -0.52805036
H       14.92417367       7.08803429       7.32973709      -0.12699425       0.50137210       0.41678306
H       14.77942365       7.66918102       7.80928303       0.12470057      -0.51229799      -0.41948220
H        9.12237185       8.90162732      40.46881164       0.13888098      -0.06693508      -0.27825639
H        9.45334848       8.72989358      39.81040990      -0.12642810       0.07519063       0.27716547
H        4.02301993       2.06321566      10.34476550       0.11172267      -0.02049452      -0.10384686
H        3.45865185       2.14350432      10.82344014      -0.13249050       0.01368495       0.09236380
H       13.57703570       5.53746437      40.17091029      -0.56675631      -0.15337017      -0.86893988
H       13.95080252       5.66337460      40.77591338       0.52915388       0.21422537       0.89512247
H        8.87956879       9.01467164       8.56363622      -0.73805577      -0.26750326      -0.12802373
H        8.16756069       8.74556473       8.43860751       0.74082690       0.28599000       0.12747222
H        8.58721176       5.47548210      40.04012718      -0.09488554       0.16425546      -0.10443513
H        8.27004455       6.06196650      39.68805314       0.09096230      -0.16921178       0.10586904
H       13.40327385       8.72481550      43.12382966      -0.24884064       0.26152518      -0.28840914
H       12.98878534       9.15999399      42.65630320       0.25605643      -0.27227443       0.28753448
H        4.08055379       5.20239640       1.96689544      -0.22514381       0.02053180      -0.16230810
H        3.47105247       5.26214519       1.52418764       0.22227086      -0.02241231       0.16301721
H        6.65901209       1.87529983      11.67174655       0.06674790       0.00283413      -0.12241589
H        6.34939314       1.86485818      12.34859700      -0.05483829      -0.00245849       0.12596916
H        8.23920094       7.36701205      46.78500485       0.44474971      -0.68017870      -0.93010539
H        8.52215215       6.93396952      46.19424305      -0.44801503       0.68158692       0.92957473
H        8.44843898       1.81113866       0.33837048      -0.37210190      -0.36359337      -0.50545990
H        8.05331103       1.42703222      46.64546119       0.37370884       0.36168844       0.50387353
H        6.21937140       1.86387207      35.38304901       0.65429312      -0.21804628      -0.33277586
H        6.87688005       1.64475656      35.04798729      -0.65498859       0.21830750       0.33269820
H       11.38046930       1.04437451      12.78055301      -0.09091396       0.01961649       0.44042486
H       11.53203984       1.02041467      12.05984386       0.09959374      -0.01292802      -0.44736427
H        0.86357196       0.43222483      40.67046026      -0.01156637      -0.00030210      -0.03226838
H        0.76466291       0.37069200      39.93057292       0.00562275       0.00353938       0.03611063
H       12.20481686       3.84800357      44.55381665       0.16525818      -0.25857663       0.07442085
H       11.82001252       4.45587504      44.38042459      -0.16295318       0.26188204      -0.07576425
H        4.11945220       3.58129517      39.58967351       0.03931706      -0.08663256       0.07506696
H        4.25190834       3.13585833      40.17869672      -0.00097368       0.02599488      -0.08713135
H        4.29016352       2.51046239       6.81539709       0.06242228      -0.04757287      -0.16921254
H        4.18375929       2.57354347       7.54783038      -0.00991186      -0.01008361       0.20071472
H       11.31214717       8.52960719       3.13846720       0.10720344       0.79375231      -1.07166517
H       11.25440292       8.10439013       3.71202982      -0.10786679      -0.79395032       1.06946790
H        7.61484012       6.48448557      10.99999228      -0.15925877      -0.24170454       0.31105465
H        7.89703089       6.89963440      10.45961899       0.16627789       0.23621370      -0.30512595
H       13.43130322       3.99143295       6.16167281      -0.09529589       1.42886674       0.82595152
H       13.39872270       4.67623335       6.57087883       0.04213036      -1.36947250      -0.84478718
144
Lattice="11.174675241468789 0.0 0.0 5.587337620734394 9.677552638152974 0.0 0.0 0.0 46.84306309572773" Properties=species:S:1:pos:R:3:forces:R:3 energy=38.164539258231486 pbc="T T T"
Pt       0.00576072       0.00668412      20.00557314      -0.17478360       0.03828244      -1.48161113
Pt       8.36175309       9.67584925      19.98155026       0.08154974      -0.03713676      -0.62036633
Pt      11.17944316       9.66724199      20.00649849      -0.02097455       0.06797534      -0.24650042
Pt       8.38692669       0.00536606      20.00248853       0.00050368      -0.14090264      -0.13179733
Pt       1.40246848       2.42153668      19.99250621      -0.04952742       0.15054427      -0.62462902
Pt       4.18865503       2.41377222      19.99740999       0.02335667      -0.07593857      -0.24389513
Pt       6.99438272       2.41747525      19.99354023      -0.09112068       0.06216182      -0.13299212
Pt       9.76662688       2.41480578      19.99933605       0.08693261       0.04892887      -0.80885422
Pt      13.96799469       4.84107155      19.99776179      -0.00779301      -0.02718016      -0.82578671
Pt       5.57774029       4.82467707      19.99617112      -0.20842160       0.08530741      -1.40524042
Pt       8.37752908       4.84322515      19.98901229      -0.03017215       0.05547181      -0.63327974
Pt      11.16124564       4.83935270      20.00275438       0.15751325       0.23177777      -1.23897672
Pt       4.19374729       7.26058731      20.00413150       0.06080814      -0.03158498      -0.90201789
Pt       6.96544912       7.24874405      19.99356681       0.05301049      -0.01111822      -1.35087883
Pt       9.78583976       7.26445886      20.00586189      -0.26507819       0.07872513      -1.22075856
Pt      12.58183771       7.26168755      19.99498516       0.11263876      -0.03937799      -1.29161155
Pt       1.39150605       0.79618918      22.28138313       0.07044103       0.10959431       0.18341583
Pt       4.17901820       0.80778073      22.27555837       0.09542136      -0.06606758       0.21042886
Pt       6.99028402       0.82536912      22.28639173      -0.06311236      -0.22095883       0.22652552
Pt       9.78179838       0.81307411      22.28070327      -0.05137527      -0.07246912       0.34745660
Pt       2.78438533       3.21909133      22.29359189       0.11979774       0.03008294       0.03242496
Pt       5.59897387       3.22029595      22.28550230      -0.15758729       0.08681896       0.10288218
Pt       8.38038064       3.22115124      22.28593753       0.06429790       0.13458852       0.19190638
Pt      11.17811288       3.21906734      22.28361672      -0.07697138       0.09600989      -0.01506641
Pt       4.18644503       5.64750711      22.29260039       0.11738501      -0.03525446       0.14339969
Pt       6.98865445       5.64513131      22.27733481      -0.07740358      -0.01701016       0.22038418
Pt       9.77499809       5.64369191      22.28440891       0.05311540      -0.02710791       0.20470893
Pt      12.57694666       5.64348120      22.28322671      -0.09837838       0.00811440       0.14607775
Pt       5.59833693       8.07700239      22.28566188      -0.09768265      -0.17627510       0.16560966
Pt       8.38218116       8.06121401      22.28983401      -0.01843558       0.00352935       0.11515149
Pt      11.17657231       8.06864756      22.27648164       0.01343941      -0.03766229       0.31287602
Pt      13.96721806       8.06395017      22.28085348       0.00898806       0.07848448       0.33725137
Pt      11.17124390       1.62397114      24.56153783       0.01856799      -0.19928236      -0.12694257
Pt       2.79453746       1.61028998      24.55598620      -0.03771012       0.04362957      -0.14096382
Pt       5.58040431       1.61977765      24.55911828       0.05033809      -0.11320774      -0.19762246
Pt       8.37385304       1.61635798      24.56333357       0.07561383      -0.10351236      -0.29991817
Pt      12.56471579       4.02799428      24.54637771       0.09642229       0.11061144       0.01411176
Pt       4.19155150       4.02938221      24.55771617      -0.07420719      -0.00352755      -0.07694773
Pt       6.97977072       4.02978947      24.56122386       0.08694572       0.05177662      -0.25192004
Pt       9.78615016       4.02188337      24.55913818      -0.10339615       0.12679447      -0.14806187
Pt      13.97439972       6.44763136      24.56241114      -0.09246819      -0.00815091      -0.22723849
Pt       5.57933276       6.44073282      24.56356520       0.12704851       0.10877387      -0.23101801
Pt       8.38521181       6.44284027      24.56953910      -0.06910560       0.04964929      -0.34892854
Pt      11.17874612       6.45061374      24.56045536      -0.00739655       0.00763515      -0.18783993
Pt      15.36670124       8.86050628      24.55556381      -0.03206474       0.17712769      -0.28600055
Pt       6.98037163       8.87964110      24.56544442       0.01636687      -0.14391622      -0.20806140
Pt       9.77093047       8.86893124      24.56365251       0.10272381       0.01019622      -0.24602272
Pt      12.57046569       8.86230165      24.56579701      -0.02002967       0.05781126      -0.38048422
Pt      11.17252987       0.00189276      26.84596485      -0.00172675      -0.12839371       0.57277447
Pt       2.78748950       0.00617964      26.83703585       0.16188283       0.06374254       0.71915871
Pt       5.60438171       0.00045503      26.83863625      -0.16121024       0.08038735       0.82402498
Pt      13.96244917       9.66953656      26.84021514       0.03899772       0.21510030       0.24696399
Pt      12.56881273       2.42190214      26.84228319       0.01718243       0.10807890       0.70327777
Pt       4.19848913       2.41586567      26.84361328      -0.07684000       0.01070685       0.93674344
Pt       6.98506550       2.42056084      26.85103538       0.19704397      -0.00838771       0.77575719
Pt       9.79304413       2.42172482      26.84580389      -0.21113645      -0.11458173       1.04384816
Pt       2.80083875       4.84582413      26.83986442      -0.08941423      -0.05396669       0.84011680
Pt       5.59463813       4.83469721      26.84428847       0.04288472       0.01937583       0.50529766
Pt       8.38692456       4.84529819      26.84475298      -0.01775810      -0.10289478       0.64588559
Pt      11.16546334       4.84149406      26.85333182       0.13244344       0.03886660       0.74538112
Pt      15.35553872       7.27917626      26.84068826       0.14628832      -0.15523088       0.72784674
Pt       6.98906155       7.25959681      26.84910804      -0.15945135      -0.05293053       0.98171359
Pt       9.77564119       7.25788695      26.84405711       0.00781050       0.01728990       0.40820122
Pt      12.57906190       7.26957277      26.84480719      -0.17438200      -0.16671935       1.34634137
H        5.54261688       9.44975924      28.38547520       0.05619584       0.18647981       0.07530942
H        2.89069595       0.11527932      28.39114727      -0.09527532      -0.09005135       0.01387059
H        5.61724368       0.10819016      28.40468227      -0.00909785      -0.10665400      -0.14217070
H        8.34405277       0.13776067      28.36818994      -0.00847179      -0.11378701       0.31161362
H       12.51595420       2.54704148      28.40024852       0.03746509      -0.11897215      -0.05092687
H        4.21714888       2.34099479      28.41928948      -0.01273313       0.10501800      -0.28434783
H        7.16630236       2.39480993      28.41093962      -0.17666642       0.03667062      -0.17412490
H        9.67825259       2.32246062      28.42461895       0.15669590       0.11558986      -0.43765631
H       13.87297392       4.85248065      28.40944076       0.11762360       0.00012290      -0.21281794
H        5.82498817       4.82588171      28.37867880      -0.18055290      -0.00983833       0.17861970
H        8.37081374       4.82616943      28.40501341       0.03855550       0.00754953      -0.00449635
H       11.19917505       4.85132654      28.42390740      -0.04545659      -0.00682037      -0.19690949
H       15.37523070       7.36618817      28.40091898      -0.04123587      -0.09954181      -0.03022075
H        6.90039031       7.16999066      28.43042561       0.10107110       0.09943023      -0.41742507
H        9.68430491       7.21687389      28.38525109       0.05832831       0.04207302       0.30019227
H       12.52830545       7.24002697      28.44961381       0.05340413       0.04283535      -0.69834483
H       11.08946987       0.06490563      18.39586659       0.11631646      -0.06382481       0.77810174
H        8.26719674       9.67668769      18.42267528       0.06162395      -0.00156966       0.03429981
H       11.24091486       9.62458766      18.47026206      -0.04043677      -0.02261594      -0.30488169
H       14.00061312       9.51838749      18.48138557       0.01708498       0.08388867      -0.40582862
H       12.61065413       2.58217432      18.44024715      -0.04213807      -0.10682703      -0.00274285
H        4.18282324       2.30855517      18.45979398      -0.05502110       0.10333316      -0.20768756
H        7.03199903       2.45218276      18.46420034       0.00847050       0.01417501      -0.45915818
H        9.72801394       2.35018761      18.43201051       0.03934431       0.07759153       0.13093062
H        2.86053115       4.88320850      18.42409243      -0.07727863      -0.04737232       0.25956240
H        5.34391632       4.85785670      18.39245275       0.30758315      -0.06990984       0.87301713
H        8.34970233       4.94085852      18.43121708       0.02036391      -0.08320476       0.01922825
H       11.18906812       5.07490861      18.41878159      -0.04153489      -0.25644186       0.61601681
H        4.23534295       7.23338672      18.42823978      -0.03365600       0.03264042       0.27530012
H        6.88681165       7.20072546      18.38534277       0.08837371       0.06246598       0.77824962
H        9.67259454       7.36923705      18.41565241       0.12071922      -0.10050263       0.57234383
H       12.73606043       7.25519977      18.39402308      -0.18234599      -0.00011364       0.73087084
H        9.19883414       7.41996917      13.58283044      -0.62132668       0.41033214      -0.40469322
H        8.63461537       7.79407596      13.21027974       0.61586100      -0.40920010       0.41137475
H        0.67372351       0.66255300      32.98257295       0.20306112      -0.33714107       0.39173022
H       11.58324712       1.10750923      32.46136007      -0.20512597       0.33162606      -0.40547201
H        5.13835409       7.51093607      14.65521254       0.91837138      -0.43441594      -0.27760950
H        4.50900712       7.80593609      14.85571729      -0.92112964       0.42365792       0.30448756
H        2.32272601       2.19131459      36.34614740       0.82227051      -0.55628753      -0.03939984
H        1.72331703       2.59624675      36.37358644      -0.82351106       0.55418336       0.03327368
H       10.71880006       7.25009271       8.87677738       0.76455206      -0.45355728      -0.12094830
H       10.10084000       7.61804786       8.97590209      -0.76275152       0.45560414       0.12547782
H        7.78089139       0.94592587      33.89176633       0.46962565      -0.32792881       0.00550190
H        7.18014806       1.36765772      33.87350743      -0.46300378       0.32222223      -0.01763057
H        4.33405866       7.22276822       1.00642324       0.37503296      -0.04017992       0.23837008
H       14.83532493       7.30026109       1.29590794      -0.12693614       0.02756634       0.45631841
H        8.51119652       2.76399775      38.44209460       1.12220466      -0.04459656      -0.66386068
H        7.89511902       2.80281724      38.80642648      -1.06949830       0.09265228       0.63464707
H        5.86009192       1.68541958      16.59134216       0.49519169       0.08222388      -0.45956981
H        5.20699912       1.64302379      16.91797225      -0.55459726      -0.01917503       0.08546939
H        4.56726422       6.60941792      35.04811613       0.98817402      -0.31121355      -0.29730234
H       15.08007248       6.81885915      35.24641318      -0.98965007       0.31499103       0.29648781
H       13.55061946       9.64761897      16.17336953      -0.62713426      -0.03706888       0.27626839
H       12.88449631       9.64001189      16.55444181       0.64737707      -0.05991982      -0.44794482
H       13.66939242       9.63103025      44.82786807      -0.38475534       0.12912056       0.18450418
H        7.43421882       0.11542010      45.18890431       0.35392395      -0.06272412      -0.21296526
H        7.63546193       0.87197962      10.96223745       0.03304845       1.29736614      -0.39328521
H        7.61813436       0.18725969      11.17052895      -0.03373879      -1.29946804       0.39711025
H       14.62264963       7.64470508      45.86979245       0.12082643       0.47491106      -0.54538679
H       14.34737041       7.03607097      46.16016639      -0.32978231      -0.52190083      -0.11763106
H        1.00843259       0.10242424       2.29237231      -0.03669402      -0.13780163      -0.05438706
H        6.94900473       9.12541285       2.22710706       0.00349747      -0.08425377      -0.03390102
H        5.77123219       2.12453727      39.95615902      -0.11757398       0.21376179      -0.01446991
H        6.02898934       1.43905156      40.07168548       0.05854711      -0.22570790       0.04858768
H       12.32781652       2.42543710       3.42250232       0.02964251      -0.00320668      -0.03677912
H        1.39271602       1.87650404       2.97186143      -0.00490875       0.21805091       0.12122110
H        8.92354191       0.95753659      30.59597104      -0.05535740       0.23664050       0.13649474
H        9.11142736       0.25508036      30.44661063       0.07976642      -0.22723386       0.04080778
H        4.97590760       5.22342217       7.84568356      -0.02124503      -0.10246104      -0.19635800
H        4.90363259       4.87604571       7.18042032       0.02119206       0.10257725       0.19686630
H        9.39860237       8.93169339      32.51959836      -0.33935684       0.36213735       0.90708756
H        9.63239144       8.68284936      31.88166889       0.33400226      -0.35444769      -0.93212986
H        2.86629165       4.35319633      14.53150575       0.57331699      -0.13558379       1.29367995
H        2.57719107       4.42392531      13.88114172      -0.56730652       0.14168786      -1.27318704