144
Lattice="11.174675241468789 0.0 0.0 5.587337620734394 9.677552638152974 0.0 0.0 0.0 46.84306309572773" Properties=species:S:1:pos:R:3:forces:R:3 energy=38.048347183156835 pbc="T T T"
Pt       0.00607400       0.00716006      20.00581716      -0.18487597       0.03775382      -1.44513881
Pt       8.36020752       9.67567559      19.98007630       0.08028913      -0.03896147      -0.75839478
Pt      11.18008844       9.66622348      20.00684191      -0.02519681       0.08056501      -0.24836318
Pt       8.38742050       0.00583716      20.00238900       0.00069960      -0.16454728      -0.23942654
Pt       1.40317782       2.42163489      19.99179658      -0.05165192       0.17815587      -0.77370209
Pt       4.18852043       2.41343952      19.99718555       0.02638029      -0.08966003      -0.33997571
Pt       6.99504155       2.41735229      19.99307438      -0.09825883       0.06730043      -0.25413018
Pt       9.76603787       2.41423026      19.99930172       0.09125154       0.05588062      -0.86414862
Pt      13.96807247       4.84126916      19.99760209      -0.01022451      -0.02801320      -0.82658482
Pt       5.57707715       4.82366712      19.99569795      -0.20429499       0.09119833      -1.27514124
Pt       8.37754175       4.84349644      19.98820293      -0.03450755       0.05742817      -0.59407866
Pt      11.16034965       4.83931481      20.00283953       0.16536976       0.24155876      -1.20214617
Pt       4.19411837       7.26079407      20.00445911       0.06300694      -0.03288981      -0.86965513
Pt       6.96418018       7.24800621      19.99272016       0.06131850      -0.00936679      -1.31981885
Pt       9.78648230       7.26496569      20.00621746      -0.28027445       0.07940622      -1.17306256
Pt      12.58277327       7.26184283      19.99462439       0.10378824      -0.04253608      -1.15783262
Pt       1.39093553       0.79538441      22.28128482       0.07800367       0.11982344       0.17352171
Pt       4.17786733       0.80768063      22.27509652       0.10587829      -0.06791107       0.20082399
Pt       6.99070102       0.82667494      22.28672197      -0.06657410      -0.23518063       0.21508616
Pt       9.78204046       0.81372304      22.28059789      -0.05768116      -0.08010967       0.35095844
Pt       2.78371079       3.21859426      22.29467857       0.12884776       0.03209508       0.01024790
Pt       5.59996276       3.22013699      22.28564697      -0.17071149       0.08692721       0.09154054
Pt       8.38032950       3.22088456      22.28648285       0.06764316       0.14293304       0.17924601
Pt      11.17834493       3.21868776      22.28372558      -0.08050099       0.10217334      -0.03648936
Pt       4.18596235       5.64777891      22.29354245       0.12776661      -0.03897613       0.13519582
Pt       6.98903851       5.64514945      22.27694049      -0.08282141      -0.01687518       0.22656408
Pt       9.77456085       5.64368803      22.28474011       0.06014145      -0.03012459       0.20262274
Pt      12.57746632       5.64368942      22.28348848      -0.10702398       0.00293723       0.14081343
Pt       5.59909368       8.07776556      22.28604273      -0.10373142      -0.18966696       0.16073561
Pt       8.38240029       8.06090085      22.29039548      -0.02210789       0.00545177       0.10700932
Pt      11.17683510       8.06900939      22.27611793       0.01204485      -0.03815132       0.32438993
Pt      13.96703443       8.06393070      22.28105864       0.01220888       0.08817188       0.34052825
Pt      11.17080000       1.62485835      24.56147173       0.02216394      -0.21640591      -0.11556390
Pt       2.79444549       1.60998287      24.55538675      -0.03933248       0.04503776      -0.12811372
Pt       5.58007942       1.62054844      24.55888300       0.05192883      -0.12763856      -0.19361489
Pt       8.37324975       1.61646853      24.56343344       0.08210588      -0.11042349      -0.29984465
Pt      12.56417591       4.02773043      24.54528731       0.10376947       0.11528570       0.02925787
Pt       4.19160678       4.02900664      24.55741210      -0.07803170      -0.00149792      -0.06777917
Pt       6.97961730       4.02936752      24.56114971       0.09208947       0.06026975      -0.24704626
Pt       9.78685940       4.02124640      24.55883498      -0.11340057       0.13450187      -0.13796411
Pt      13.97468663       6.44707591      24.56225186      -0.09745844      -0.00311258      -0.22204871
Pt       5.57840668       6.44002505      24.56364504       0.14067560       0.11361037      -0.22486356
Pt       8.38577163       6.44205238      24.57020278      -0.07761209       0.05517202      -0.35694063
Pt      11.17908845       6.45073866      24.56027699      -0.00859134       0.00795499      -0.18492945
Pt      15.36698713       8.85986793      24.55507108      -0.03604610       0.18881567      -0.28432006
Pt       6.97996224       8.88022181      24.56571451       0.01948254      -0.15288372      -0.20382036
Pt       9.77055044       8.86874518      24.56390708       0.10746209       0.01371067      -0.24365859
Pt      12.57032729       8.86173572      24.56615342      -0.02090281       0.06365872      -0.39206988
Pt      11.17231658       0.00211934      26.84615715      -0.00163676      -0.14336370       0.61870337
Pt       2.78693532       0.00649765      26.83655109       0.17715982       0.07616637       0.78144062
Pt       5.60551881       0.00059825      26.83838833      -0.17368780       0.08773839       0.87908852
Pt      13.96197507       9.66878895      26.84009796       0.04602661       0.22280771       0.14447442
Pt      12.56879833       2.42222075      26.84234053       0.01745856       0.12035592       0.74554127
Pt       4.19919132       2.41564875      26.84370278      -0.08585608       0.01466660       0.86990482
Pt       6.98528704       2.42065785      26.85172038       0.21340518      -0.01018928       0.81585276
Pt       9.79413586       2.42181484      26.84604040      -0.22624913      -0.12177080       1.04285550
Pt       2.80132155       4.84636892      26.83952633      -0.09519716      -0.05824295       0.81175905
Pt       5.59520341       4.83435611      26.84448346       0.05101043       0.01835279       0.54371202
Pt       8.38731933       4.84575409      26.84499599      -0.01825612      -0.11059704       0.70926279
Pt      11.16481955       4.84172619      26.85384320       0.14294255       0.04179303       0.75258893
Pt      15.35476356       7.28080674      26.84062429       0.15746671      -0.17005870       0.75252289
Pt       6.98946279       7.25983004      26.84967452      -0.17061868      -0.05945060       0.96882880
Pt       9.77549523       7.25781258      26.84412711       0.01106731       0.02093315       0.36585489
Pt      12.57965414       7.27039543      26.84503121      -0.18988627      -0.17785427       1.29390752
H        5.54124615       9.43283007      28.38606293       0.05888058       0.20711498       0.02629493
H        2.89619632       0.12421990      28.39342905      -0.10486785      -0.10107136      -0.04837402
H        5.61881430       0.11380314      28.40771011      -0.01002705      -0.11570916      -0.20082837
H        8.33859882       0.14361071      28.36182357      -0.00606780      -0.10867643       0.42575699
H       12.51263516       2.55913448      28.40211766       0.04132894      -0.13366909      -0.09881341
H        4.21816536       2.33743286      28.41484309      -0.01190986       0.10715356      -0.21408215
H        7.17639949       2.39213125      28.41336615      -0.19180869       0.04084969      -0.22135118
H        9.67240714       2.31596085      28.42399736       0.16640696       0.12230147      -0.43746218
H       13.86382130       4.85261307      28.40675252       0.12572259       0.00187022      -0.18401593
H        5.83948128       4.81944259      28.37926449      -0.19717817      -0.00645270       0.13601883
H        8.37100949       4.82653332      28.40925233       0.04153515       0.00764029      -0.07334972
H       11.20276374       4.85217384      28.42517060      -0.05123309      -0.00642339      -0.21141258
H       15.37523813       7.37102198      28.40219216      -0.04453794      -0.10585644      -0.05531780
H        6.89600959       7.16406140      28.42996863       0.10566566       0.10490718      -0.41129145
H        9.67614073       7.21585107      28.38240330       0.06083770       0.04238104       0.34640294
H       12.52255298       7.24018117      28.44560673       0.05873326       0.04279910      -0.64188880
H       11.08250586       0.06812046      18.39991763       0.12331063      -0.06520395       0.73399472
H        8.25945363       9.67680020      18.41251582       0.07428946      -0.00194941       0.18791911
H       11.24460625       9.61720801      18.47083469      -0.04064606      -0.01519651      -0.31117395
H       14.00392606       9.50643455      18.47682474       0.01263286       0.10249086      -0.29614070
H       12.61461644       2.59610964      18.43123515      -0.04982001      -0.13257766       0.16128995
H        4.17615678       2.30452650      18.45434515      -0.04635005       0.11040600      -0.10611046
H        7.03759404       2.45617687      18.45769794      -0.00086698       0.00761201      -0.34090182
H        9.72351155       2.34797583      18.42858411       0.04475648       0.08235193       0.18966746
H        2.86363549       4.88708489      18.42360540      -0.08219509      -0.05041394       0.26841342
H        5.32786300       4.86038854      18.40449431       0.31034145      -0.07355335       0.74027669
H        8.34538685       4.94883593      18.43306980       0.02325666      -0.08674491      -0.01724362
H       11.18772173       5.09148198      18.42370165      -0.04146136      -0.26807249       0.57935828
H        4.23804497       7.23281644      18.43051482      -0.03477340       0.03308727       0.24484591
H        6.88261205       7.19750664      18.38669845       0.09014674       0.06492627       0.75164407
H        9.66670794       7.37684244      18.42032213       0.12381534      -0.10432818       0.52197307
H       12.74311176       7.25432641      18.40423043      -0.17700967       0.00037770       0.59194565
H        9.19915390       7.42077414      13.57689193      -0.18967877       0.12143449      -0.11336740
H        8.63825637       7.78467575      13.22575781       0.18418048      -0.12027596       0.11978590
H        0.66779673       0.64695139      32.99704205       0.16376051      -0.27798873       0.31832010
H       11.58030966       1.09794874      32.47597774      -0.16580634       0.27245778      -0.33138719
H        5.13928951       7.51247450      14.64196818       0.71505344      -0.32062018      -0.23172943
H        4.50400760       7.79445888      14.86116630      -0.71817756       0.31114644       0.25906798
H        2.31961615       2.19195538      36.34897864       0.71181458      -0.48349804      -0.03178938
H        1.71834935       2.59967111      36.37428841      -0.71304309       0.48134989       0.02556860
H       10.71588175       7.23957584       8.88245536       0.59517187      -0.35422888      -0.10222193
H       10.09583586       7.61050800       8.99068604      -0.59322244       0.35646445       0.10686046
H        7.78162298       0.94268607      33.89634602       0.53117120      -0.37834686       0.01037440
H        7.18644171       1.36882144      33.87486022      -0.52438706       0.37259015      -0.02234494
H        4.33854188       7.23068664       1.01503553       0.42425981      -0.03721775       0.15772973
H       14.84503160       7.29180218       1.31664536      -0.20996016       0.02895731       0.44293684
H        8.50938669       2.78053036      38.42912558       0.66350871       0.00782027      -0.41170898
H        7.89073099       2.79713054      38.81353294      -0.60841179       0.04140633       0.38085550
H        5.84789550       1.69661898      16.56292863       0.54871434       0.09998070      -0.47916600
H        5.19936841       1.63594290      16.89260782      -0.60740107      -0.03962662       0.12599872
H        4.56717651       6.60474654      35.05280431       0.48219141      -0.15441558      -0.14534473
H       15.06935728       6.82230856      35.25366717      -0.48370939       0.15842959       0.14454101
H       13.54350622       9.65939696      16.15567746      -0.46526867      -0.04547382       0.19190665
H       12.88448787       9.63817043      16.53765575       0.48449898      -0.04977168      -0.35465106
H       13.66306972       9.63333006      44.82410056      -0.08112808       0.05388107       0.01587759
H        7.43885260       0.11508044      45.18526211       0.04999511       0.01351526      -0.04410934
H        7.62282637       0.88627705      10.97377241       0.00948069       0.88620818      -0.25472564
H        7.61562930       0.18929308      11.17503870      -0.00999876      -0.88865870       0.25854424
H       14.62366450       7.63846097      45.83969328       0.14509894       0.46632874      -0.49483585
H       14.33691337       7.03153225      46.12369350      -0.31982315      -0.51871961      -0.07410331
H        1.00431104       0.10408015       2.28953165       0.02531971      -0.24236403      -0.06687286
H        6.96258034       9.13440878       2.21252674      -0.05776447       0.02505669      -0.02129954
H        5.77266934       2.12359410      39.94635789      -0.09432478       0.14308833      -0.00366716
H        6.03727970       1.44015407      40.07042067       0.03222081      -0.15571424       0.03959191
H       12.32888866       2.42008671       3.43186701      -0.10827173       0.30647680       0.22281671
H        1.39266945       1.88461400       2.98265046       0.13214236      -0.09617392      -0.13886735
H        8.92552847       0.96691091      30.59455810      -0.04529796       0.20728673       0.12264112
H        9.10597351       0.25798733      30.46360050       0.06840266      -0.19896175       0.04915744
H        4.99308640       5.21648904       7.82840134       0.04865504       0.18195647       0.34076068
H        4.90095976       4.87144389       7.18256101      -0.04866019      -0.18176877      -0.33985874
H        9.39152831       8.93587233      32.51841850      -0.22323014       0.23994976       0.58141750
H        9.63047915       8.67991429      31.87554019       0.21778403      -0.23222926      -0.60695446
H        2.87474936       4.34393517      14.53298995       0.51812696      -0.13346829       1.11573160
H        2.57281173       4.42438272      13.88519758      -0.51188123       0.13939416      -1.09505069
H        8.70815679       8.08108202      42.78721562       0.05164292       0.01627791       0.39494461
H        8.61435063       8.05168635      42.05600214      -0.05026044      -0.01503813      -0.39506367
H       10.10104199       0.99150628      15.26554170       0.26439351      -0.20375480       0.39635822
H        9.76003427       1.31095587      14.69715601      -0.22295992       0.22913674      -0.39133403
H       13.50434183       9.47601631      38.83861892       0.25814494      -0.14352104       0.93809819
H       13.31948705       9.56460176      38.14454429      -0.25162593       0.10474032      -0.94964886
144
Lattice="11.174675241468789 0.0 0.0 5.587337620734394 9.677552638152974 0.0 0.0 0.0 46.84306309572773" Properties=species:S:1:pos:R:3:forces:R:3 energy=38.01530058725908 pbc="T T T"
Pt       0.00693890       0.00872329      20.00681828      -0.19905174       0.02288308      -1.16679013
Pt       8.35570245       9.67516081      19.97581612       0.06902873      -0.04390571      -1.13014674
Pt      11.18191369       9.66315294      20.00753563      -0.03421830       0.11184583      -0.29272911
Pt       8.38908082       0.00714166      20.00205079      -0.00017535      -0.24378714      -0.58405775
Pt       1.40545526       2.42194002      19.98988340      -0.06107270       0.26476991      -1.14095020
Pt       4.18794584       2.41203271      19.99648936       0.03147108      -0.12389736      -0.58508056
Pt       6.99656855       2.41726158      19.99185549      -0.11023143       0.08280418      -0.63106650
Pt       9.76412251       2.41245462      19.99938687       0.10391037       0.07903443      -0.99337512
Pt      13.96800714       4.84188976      19.99701169      -0.01770205      -0.03462171      -0.83638740
Pt       5.57522144       4.82077314      19.99428280      -0.14431706       0.09997427      -0.69456428
Pt       8.37746157       4.84428939      19.98581681      -0.04110526       0.06001135      -0.46622896
Pt      11.15740864       4.83922256      20.00283227       0.19164413       0.23463221      -0.94800466
Pt       4.19493233       7.26135024      20.00525734       0.06740481      -0.03885991      -0.68715435
Pt       6.96074527       7.24560756      19.99006458       0.09537456       0.01080969      -0.99885464
Pt       9.78822103       7.26638654      20.00748123      -0.31361496       0.07060044      -0.95712459
Pt      12.58566240       7.26223483      19.99391524       0.04931736      -0.04931196      -0.59098071
Pt       1.38915135       0.79315255      22.28060641       0.10313904       0.14949861       0.15433639
Pt       4.17419312       0.80748993      22.27343355       0.13967596      -0.07559224       0.17588148
Pt       6.99207942       0.83046532      22.28799298      -0.07971912      -0.27709475       0.17198573
Pt       9.78283047       0.81551798      22.28032371      -0.07809187      -0.10148505       0.36325654
Pt       2.78182442       3.21736680      22.29805643       0.15657556       0.03660994      -0.05607319
Pt       5.60298810       3.21999151      22.28585675      -0.20948322       0.08323047       0.06587655
Pt       8.38025955       3.21967026      22.28846089       0.07642090       0.17445913       0.13951193
Pt      11.17897172       3.21747464      22.28393662      -0.09182104       0.11985379      -0.08966209
Pt       4.18420125       5.64866807      22.29648426       0.16088010      -0.05149200       0.10823471
Pt       6.98998710       5.64541909      22.27570764      -0.09323361      -0.02023098       0.25515810
Pt       9.77360335       5.64409041      22.28584497       0.07613885      -0.04520719       0.19884193
Pt      12.57915595       5.64409510      22.28438819      -0.13472170      -0.00951334       0.13107279
Pt       5.60098518       8.07994653      22.28708341      -0.12073619      -0.23007545       0.15692395
Pt       8.38262512       8.05977303      22.29175480      -0.02939902       0.01439252       0.09263506
Pt      11.17751259       8.07027354      22.27537880       0.00859186      -0.03760342       0.35793668
Pt      13.96654425       8.06398031      22.28179653       0.02103934       0.11701503       0.35175779
Pt      11.16954178       1.62721137      24.56143325       0.03362643      -0.26768991      -0.08872364
Pt       2.79384191       1.60880492      24.55350800      -0.03886814       0.04947857      -0.09139013
Pt       5.57911329       1.62272614      24.55825586       0.05498150      -0.17104857      -0.18746532
Pt       8.37169246       1.61655281      24.56409495       0.09809300      -0.12819676      -0.30237025
Pt      12.56265754       4.02712942      24.54196087       0.12506670       0.12661269       0.07394519
Pt       4.19180252       4.02784723      24.55659400      -0.08812405       0.00375921      -0.04398978
Pt       6.97924721       4.02821473      24.56124629       0.10655681       0.08326801      -0.23367652
Pt       9.78922319       4.01929902      24.55817808      -0.14596823       0.15833625      -0.11784112
Pt      13.97578668       6.44528675      24.56202234      -0.11529959       0.01382277      -0.21286988
Pt       5.57558043       6.43788038      24.56392673       0.18285559       0.12768537      -0.20806295
Pt       8.38727288       6.43958445      24.57212882      -0.10032291       0.07214028      -0.37984711
Pt      11.18004712       6.45123091      24.56001342      -0.01213587       0.00864611      -0.18026571
Pt      15.36777719       8.85799813      24.55372285      -0.04770837       0.22232023      -0.27682838
Pt       6.97881564       8.88197663      24.56654531       0.02828728      -0.17888066      -0.19626184
Pt       9.76937626       8.86769597      24.56451811       0.12004790       0.02982506      -0.23097225
Pt      12.56965248       8.86012794      24.56716923      -0.02165743       0.08166673      -0.42856669
Pt      11.17172426       0.00266066      26.84677583      -0.00421198      -0.19274174       0.76599342
Pt       2.78541927       0.00747713      26.83559271       0.21983756       0.11295063       0.93520570
Pt       5.60898795       0.00127688      26.83805509      -0.21497433       0.10313107       0.99690109
Pt      13.96029749       9.66662655      26.83979494       0.07589177       0.23534286      -0.18928154
Pt      12.56865206       2.42296668      26.84254410       0.02282240       0.15757701       0.80492890
Pt       4.20114881       2.41499111      26.84387751      -0.11402843       0.03403832       0.56160867
Pt       6.98575662       2.42106253      26.85398150       0.25590733      -0.01373741       0.85762805
Pt       9.79726427       2.42198125      26.84663111      -0.25822002      -0.13192332       0.90965277
Pt       2.80269395       4.84807149      26.83870742      -0.10848410      -0.07349730       0.71494955
Pt       5.59674299       4.83344317      26.84545693       0.07890845       0.01207236       0.65626079
Pt       8.38871509       4.84697620      26.84576834      -0.02140546      -0.13058095       0.90632117
Pt      11.16278101       4.84253598      26.85531199       0.17418428       0.04898415       0.65256941
Pt      15.35234757       7.28577059      26.84048233       0.19116899      -0.22253568       0.77790558
Pt       6.99053147       7.26052421      26.85155797      -0.19522156      -0.06754957       0.79341269
Pt       9.77526716       7.25767460      26.84448232       0.01432619       0.03121242       0.30487937
Pt      12.58151626       7.27269400      26.84607571      -0.22389297      -0.20341054       0.95388037
H        5.53671404       9.38520980      28.38846536       0.06706003       0.27297249      -0.13067916
H        2.90783341       0.15034925      28.39931542      -0.12875700      -0.13398996      -0.20325190
H        5.62442019       0.12863124      28.41461376      -0.01403797      -0.13904732      -0.32860938
H        8.32049142       0.15951544      28.34222412      -0.00333703      -0.08380383       0.79686207
H       12.50404637       2.59543295      28.40321711       0.05029052      -0.17417143      -0.17120104
H        4.22300345       2.32877347      28.39555070      -0.00925109       0.10336787       0.11080504
H        7.20538472       2.38308155      28.41556422      -0.22854152       0.05379905      -0.27926630
H        9.65725257       2.29857170      28.41294537       0.18124427       0.12933190      -0.29407355
H       13.84065502       4.85226255      28.39829849       0.14256820       0.00756393      -0.08514491
H        5.87786675       4.79846555      28.38166498      -0.24541233       0.00677691       0.00876669
H        8.37438486       4.82926662      28.42303330       0.04696789       0.00597962      -0.28589693
H       11.21256530       4.85529221      28.42101423      -0.06350574      -0.00392890      -0.12376186
H       15.37436768       7.37819339      28.40343496      -0.05264874      -0.11534972      -0.07782833
H        6.88208983       7.14973958      28.41935817       0.11030779       0.10737519      -0.24694933
H        9.64764001       7.21241879      28.37721655       0.07364669       0.04544502       0.41559392
H       12.51011502       7.24422705      28.42204832       0.05930610       0.03463816      -0.27910793
H       11.06426122       0.07412928      18.42442648       0.12675308      -0.05811439       0.41809252
H        2.64637725       0.00032583      18.38269732       0.11788175      -0.00440970       0.60176700
H       11.25243919       9.59144118      18.47007607      -0.04138140       0.00979308      -0.28450775
H       14.01395091       9.47261231      18.46073404      -0.00323728       0.16920945       0.05636373
H       12.62437311       2.63749899      18.40732630      -0.07141600      -0.21315707       0.56897205
H        4.15551262       2.29237004      18.43974283      -0.01557832       0.13036831       0.15185142
H        7.05352809       2.46847490      18.43619263      -0.03283890      -0.01545130       0.03439134
H        9.71107033       2.34284601      18.42059921       0.06024121       0.09340022       0.32516822
H        2.86830687       4.89590510      18.42121846      -0.09240700      -0.05737212       0.30241728
H        5.28444881       4.86738273      18.45120234       0.26461717      -0.07460339       0.13896453
H        8.33671410       4.97289654      18.43919373       0.02768718      -0.09454461      -0.13601522
H       11.18769007       5.13415733      18.44825324      -0.04367893      -0.26563200       0.31764311
H        4.24336921       7.22767804      18.44230738      -0.03250055       0.03515521       0.06355819
H        6.87246721       7.19222794      18.40705857       0.08021277       0.05896851       0.42822498
H        9.64986606       7.39701951      18.43929524       0.12411770      -0.10529003       0.29235297
H       12.76344504       7.24882767      18.44304922      -0.13507909       0.00188230       0.00003548
H        9.20173421       7.42282937      13.55873127       1.32597458      -0.80024385       0.69581306
H        8.64723945       7.75679971      13.26968543      -1.33127701       0.80119103      -0.69058603
H        0.65324012       0.59858399      33.04404860      -0.07293372       0.13831842      -0.15614799
H       11.57031509       1.07233526      32.51570296       0.07108793      -0.14377791       0.14377919
H        5.14994805       7.51844513      14.60142017      -0.39693901       0.14354624       0.18248945
H        4.48448961       7.76218709      14.88122238       0.39280573      -0.15147707      -0.15332338
H        2.31798836       2.18649903      36.36161813      -0.21204352       0.14598031       0.00265852
H        1.69731709       2.61641699      36.37519141       0.21062350      -0.14817552      -0.00917653
H       10.70770656       7.20200175       8.89781051      -0.24290371       0.15308349       0.05707695
H       10.07758140       7.59440418       9.04118076       0.24518736      -0.15051857      -0.05207230
H        7.78970431       0.92971621      33.91277441       0.18957722      -0.14071392       0.00211345
H        7.19821543       1.37738649      33.87817811      -0.18220896       0.13475513      -0.01360242
H        4.36091655       7.25235550       1.04545572       0.08020788      -0.00237699       0.18898921
H       14.86965198       7.26605609       1.37945671       0.05641026       0.00304676       0.19656523
H        8.50863998       2.83682681      38.38754432      -0.76906717      -0.04393090       0.54857630
H        7.87797537       2.78125765      38.83518959       0.83274645       0.09758031      -0.58594620
H        5.81758206       1.73504372      16.47238216       0.20483081       0.08323536      -0.27836102
H        5.17330825       1.61517704      16.81533480      -0.26210111      -0.02920722      -0.01695411
H        4.56854739       6.59000577      35.06395060      -0.90734959       0.30943486       0.27837130
H       15.03662772       6.82950208      35.28185907       0.90499985      -0.30453357      -0.27868369
H        7.93385765       0.01828017      16.09804031       0.17992504      -0.01423774      -0.17398734
H       12.88979531       9.63041980      16.48170241      -0.16533378      -0.07680837       0.03744838
H       13.64865929       9.63908509      44.81215803       0.62351543      -0.12517752      -0.40158319
H        7.45005104       0.11956754      45.17521769      -0.65673232       0.19743194       0.37395671
H        7.58215421       0.93750307      10.99851615       0.02734908      -0.82870466       0.20863347
H        7.60668336       0.18822452      11.18581550      -0.02785122       0.82665986      -0.20410833
H       14.63154202       7.62301156      45.74252787      -0.07990552      -0.09176191      -0.14009556
H       14.29974164       7.01077296      46.01080941      -0.01545387       0.02643943      -0.21448684
H        0.99103364       0.10823150       2.27926453       0.21132953      -0.48895162      -0.11993066
H        7.00139818       9.16638148       2.16504007      -0.24180353       0.28266531       0.03202644
H        5.77705977       2.12522434      39.92323376       0.09401008      -0.32596475       0.09486369
H        6.06735967       1.44136516      40.06898640      -0.16690189       0.31112999      -0.05217849
H       12.33132547       2.40840160       3.46116646      -0.39590132       0.90174198       0.76881367
H        1.39479951       1.90233546       3.01010300       0.41773152      -0.70266020      -0.68541193
H        8.93211053       0.99716331      30.59586630       0.05127577      -0.20626883       0.05531523
H        9.09209519       0.26402059      30.51623383      -0.03193490       0.21256778       0.09750344
H        5.04201383       5.20494653       7.79120555       0.24708766       0.58576214       1.01507056
H        4.89358448       4.85328519       7.18167843      -0.24716145      -0.58557057      -1.01462317
H        9.36880908       8.94593837      32.52705017       0.25943100      -0.27317587      -0.68583924
H        9.63008694       8.67008378      31.85583255      -0.26500723       0.28099436       0.65948415
H        2.90607722       4.31410878      14.54879396      -0.18628055       0.06792418      -0.34843001
H       13.73097749       4.43322240      13.88442999       0.19328167      -0.06245287       0.37092897