144
Lattice="11.174675241468789 0.0 0.0 5.587337620734394 9.677552638152974 0.0 0.0 0.0 46.84306309572773" Properties=species:S:1:pos:R:3:forces:R:3 energy=38.347921756186366 pbc="T T T"
Pt       0.00953085       0.01274535      20.00983279      -0.17637615      -0.04486627      -0.09236380
Pt       8.34276068       9.67322810      19.96363494       0.12869246      -0.05367924      -0.90700632
Pt      11.18860008       9.65385847      20.01067776      -0.06086624       0.16633290      -0.68955785
Pt       8.39432723       0.01016853      20.00143439      -0.00938016      -0.41236436      -0.96846288
Pt       1.41293206       2.42192163      19.98236409      -0.13914837       0.39600238      -1.05683196
Pt       4.18666275       2.40832803      19.99481844       0.03528814      -0.18116972      -0.74986410
Pt       6.99796995       2.41532017      19.98845070      -0.11898475       0.13563830      -1.07998633
Pt       9.75673928       2.40685041      19.99836252       0.19406046       0.20103920      -0.48842892
Pt      13.96843289       4.84316575      19.99647921      -0.09136904      -0.07448178      -0.34818652
Pt       5.57017961       4.81352554      19.98857209       0.16891532       0.09600192       0.72990102
Pt       8.37686848       4.84641293      19.97711277      -0.05396309       0.08296514      -0.33763242
Pt      11.14898212       4.83954052      20.00164942       0.26069987       0.09333362      -0.15031622
Pt       4.19743324       7.26377688      20.00716469       0.05024707      -0.05876771      -0.26332161
Pt       6.95061175       7.23907527      19.98150844       0.24992281       0.08921935       0.46608680
Pt       9.79330783       7.26955578      20.01156860      -0.37282720       0.00453748      -0.28468749
Pt      12.59295082       7.26135678      19.99300932      -0.09518790      -0.03983950       0.46527895
Pt       1.38285063       0.78728465      22.27807881       0.18714908       0.22175200       0.15929991
Pt       4.16394422       0.80854829      22.26840545       0.23966232      -0.11616888       0.13317262
Pt       6.99663730       0.84190921      22.29171197      -0.12919229      -0.41797116       0.05438424
Pt       9.78583249       0.82115072      22.27905291      -0.12911233      -0.17285888       0.41671285
Pt       2.77614688       3.21270417      22.30748005       0.23990117       0.05521779      -0.19326238
Pt       5.61141178       3.22037363      22.28785394      -0.32498515       0.08750904      -0.02682895
Pt       8.37907149       3.21591699      22.29341622       0.10432329       0.27892333       0.05671391
Pt      11.18103805       3.21270132      22.28423170      -0.13103886       0.18508139      -0.20155986
Pt       4.17783081       5.65097509      22.30442288       0.28350684      -0.09074838       0.00533607
Pt       6.99236920       5.64671224      22.27215984      -0.12662941      -0.03687991       0.31107369
Pt       9.77009539       5.64478806      22.28977558       0.13715447      -0.08970528       0.16175094
Pt      12.58432173       5.64426431      22.28710576      -0.23782757      -0.02055854       0.10136935
Pt       5.60516605       8.08550827      22.29037757      -0.16704047      -0.33810857       0.14697969
Pt       8.38361758       8.05770789      22.29560229      -0.05445417       0.03504517       0.07330499
Pt      11.17931932       8.07527913      22.27355641       0.01856774      -0.04146187       0.43542176
Pt      13.96596946       8.06358066      22.28574906       0.02930415       0.19322741       0.33447355
Pt      11.16675882       1.63346047      24.56199974       0.06326354      -0.40186706      -0.06716442
Pt       2.79225412       1.60462457      24.54754653      -0.02676056       0.07475380       0.01470337
Pt       5.57740396       1.62882914      24.55390350       0.05137810      -0.27844331      -0.15258418
Pt       8.36934131       1.61548634      24.56460299       0.12712100      -0.17100614      -0.25911632
Pt      12.55760951       4.02758735      24.53174031       0.19785951       0.13915865       0.21232171
Pt       4.19344612       4.02594906      24.55391963      -0.13774635      -0.00252097       0.03533879
Pt       6.97765666       4.02541943      24.56312068       0.16717879       0.14300554      -0.22458562
Pt       9.79615765       4.01347161      24.55612697      -0.24521589       0.23197548      -0.09550029
Pt      13.97876906       6.43950730      24.56102161      -0.16757450       0.05686304      -0.18540047
Pt       5.56758153       6.43163775      24.56608047       0.31731322       0.17339830      -0.18664463
Pt       8.39197708       6.43207982      24.57496955      -0.16874692       0.12561820      -0.38963529
Pt      11.18197090       6.45445767      24.56032814      -0.03201152      -0.00052425      -0.16781746
Pt      15.37021336       8.85163990      24.55113739      -0.09202596       0.33087736      -0.22615014
Pt       6.97491632       8.88659241      24.56897702       0.05503138      -0.25744870      -0.19310735
Pt       9.76548969       8.86436448      24.56591932       0.15695789       0.06609201      -0.21349697
Pt      12.56845363       8.85495732      24.56945495      -0.00672035       0.14592965      -0.50786233
Pt      11.16940761       0.00495868      26.85008421       0.00495323      -0.24786362       0.73570299
Pt       2.78220334       0.01026664      26.83397755       0.28369811       0.14610140       0.74949181
Pt       5.61762504       0.00511528      26.83824633      -0.32371503       0.05305678       0.54704338
Pt      13.95546896       9.66123359      26.83945781       0.09277235       0.42677617       0.34167495
Pt      12.56894839       2.42541614      26.84301106       0.05550189       0.19558050       0.58681500
Pt       4.20734142       2.41452382      26.84345050      -0.20551318       0.07560407       0.05793930
Pt       6.98605101       2.42263850      26.85994934       0.31033474      -0.01982526       0.51594359
Pt       9.80537619       2.42168594      26.84798388      -0.26040211      -0.07391614      -0.04030410
Pt       2.80606656       4.85106538      26.83713700      -0.11586780      -0.08916406       0.39960319
Pt       5.60267496       4.83064873      26.84748949       0.13102137      -0.01420766       0.82913071
Pt       8.39289485       4.85067493      26.84837731       0.00925057      -0.17121235       0.74151880
Pt      11.15763478       4.84522273      26.86026175       0.23646644       0.06363995      -0.02682509
Pt      15.34769396       7.29989949      26.84011567       0.25404739      -0.40312639       0.55195576
Pt       6.99217749       7.26268232      26.85696331      -0.19659942      -0.03502177      -0.03816109
Pt       9.77680358       7.25803439      26.84599582      -0.07714673       0.04759832       0.81681949
Pt      12.58778211       7.27787297      26.84953156      -0.26929891      -0.26061836      -0.27483886
H        5.52583870       9.28323782      28.36899137       0.07201892       0.35641742      -0.10637426
H        2.93648241       0.19795299      28.37863810      -0.14220773      -0.14543961       0.00380909
H        5.64025820       0.15597543      28.38600290      -0.02345129      -0.12297793       0.11748708
H        8.25261823       0.18834466      28.36205202       0.06603159      -0.17258942       0.27378318
H       12.46836086       2.67310730      28.38086223       0.07434088      -0.21862838       0.02594938
H        4.24159136       2.32630963      28.36796273      -0.00809075       0.08609726       0.62663525
H        7.25445339       2.36716797      28.39384714      -0.22249582       0.06509982       0.04536146
H        9.65961993       2.27094012      28.35651047       0.10470150       0.05601843       0.71462429
H       13.78874654       4.87323160      28.37354915       0.15718903       0.00310075       0.22697031
H        5.97905072       4.72305818      28.37487057      -0.35532314       0.06786813      -0.18508756
H        8.41233805       4.83999247      28.41609805       0.02812633      -0.00868544      -0.12474891
H       11.24496620       4.85647342      28.38852393      -0.07127587       0.01460130       0.53601593
H       15.35802455       7.37030764      28.39001208      -0.05523758      -0.10054146       0.18038373
H        6.83882894       7.12291418      28.37285177       0.07176798       0.05225433       0.57059675
H        9.56370421       7.21790833      28.40113929       0.19132686       0.06391274      -0.12313245
H       12.48432403       7.25454855      28.35586867       0.00416853       0.00860883       1.01188397
H       11.03626558       0.08040211      18.49631834       0.05324318      -0.00694018      -0.77509153
H        2.57433287       0.00430703      18.38791689       0.15819150      -0.00906571       0.42030135
H       11.26291991       9.52214351      18.45371071      -0.05475576       0.10031520       0.07926866
H       14.04596096       9.39967441      18.44544997      -0.05131665       0.30122405       0.42712763
H       12.64349472       2.75590540      18.42018137      -0.09712472      -0.32796583       0.54106504
H        4.08759244       2.27220327      18.43009797       0.08380820       0.13656929       0.30912504
H        7.10242628       2.50345533      18.40801753      -0.12595116      -0.07778462       0.45091188
H        9.68556051       2.35719734      18.45082845       0.06330622       0.06325711      -0.20855890
H        2.84590905       4.89937885      18.44700691      -0.06328540      -0.03573114      -0.15742043
H        5.16697879       4.85328778      18.54671004      -0.00938376      -0.03976777      -1.30743742
H        8.33511896       5.04063725      18.44103355       0.02827982      -0.12805921      -0.21095106
H       11.20664087       5.21445949      18.51147744      -0.05408033      -0.14589314      -0.48005277
H        4.23504616       7.22317989      18.46649942      -0.00801310       0.02490345      -0.34835315
H        6.86466954       7.19980875      18.47759194      -0.01038417       0.00671315      -1.05731201
H        9.59653169       7.44086056      18.49382109       0.09220079      -0.06480286      -0.41734457
H       12.78710212       7.22320672      18.49916340      -0.01339519      -0.00381886      -1.07474458
H        9.29830426       7.38350206      13.54046453      -1.60154152       0.77983367      -0.42087394
H        8.59242780       7.72731642      13.35367390       1.59704781      -0.77790123       0.42590430
H        0.60701719       0.49355417      33.15349628       0.23169009      -0.48749509       0.48696312
H       11.55102958       0.98344623      32.66287399      -0.23425142       0.48277995      -0.49712488
H        5.09131052       7.57451488      14.51750382       0.55444586      -0.07922598      -0.35648221
H        4.48656809       7.66188696      14.92132033      -0.55996525       0.07884932       0.38487336
H        2.26288307       2.19951559      36.39123498       0.46787602      -0.34781939       0.02044053
H        1.67436553       2.63630420      36.36277722      -0.46925104       0.34565964      -0.02699170
H       10.64831071       7.10086526       8.95265156       0.61568284      -0.46167350      -0.25963002
H       10.09709204       7.51501872       9.18625570      -0.61420369       0.46367896       0.26519877
H        7.79905035       0.89558453      33.98314461       0.27320468      -0.23243263       0.02693128
H        7.24323607       1.37791632      33.91103602      -0.26525301       0.22693947      -0.03742575
H        4.41241042       7.30799911       1.17653611       0.06122183       0.01340753       0.00887802
H       14.95820547       7.19429602       1.56146780      -0.03285382      -0.00567725       0.06406238
H        8.42699593       2.99956824      38.31948288       0.76513183       0.37397367      -0.83489847
H        7.96814395       2.77858440      38.82765206      -0.71032977      -0.33700970       0.79875284
H        5.69543581       1.87729640      16.19267109      -0.01494428       0.03277874      -0.07764578
H        5.10856342       1.56673094      16.53504580      -0.03969450       0.01382765      -0.06451876
H        4.50133411       6.57347834      35.10864146       1.19448841      -0.41640946      -0.41643468
H       15.03352266       6.79848980      35.33191797      -1.19688416       0.42147559       0.41599810
H        7.88199989       0.14865623      15.88860470      -0.42377493      -0.21359132       0.28284606
H       12.88292980       9.59099433      16.31534428       0.42169824       0.12397964      -0.33625481
H       13.66267280       9.63482322      44.76725688      -0.46123049       0.19121784       0.26011646
H        7.45384689       0.15676044      45.16022700       0.42093873      -0.10041495      -0.28293964
H        7.47354097       0.99092334      11.06494317      -0.21519493       1.47146761      -0.24920754
H        7.57532701       0.29557284      11.18365478       0.21526819      -1.47326791       0.25513625
H       14.64456387       7.54857723      45.44797611       0.36979768       0.38869068      -0.19132814
H       14.20142803       7.00623521      45.65946230      -0.35002512      -0.47954524       0.14452557
H        0.97122943       0.05664049       2.23986348      -0.11014967      -0.02782037      -0.01074978
H        7.10017240       9.27250274       2.02298184       0.08820710      -0.13207629      -0.06660084
H        5.80859497       2.10241877      39.89333315      -0.39874882       0.64863408      -0.14343080
H        6.15577058       1.48170460      40.05085206       0.33438304      -0.66532314       0.18325153
H       12.31394133       2.43282152       3.57697906       0.24269570      -0.40311095      -0.44336826
H        1.40899572       1.93207702       3.06308615      -0.22907297       0.55519712       0.51714581
H        8.95229585       1.06338448      30.59724415       0.00842165       0.00610226       0.06273569
H        9.05613859       0.32804683      30.69344161       0.01032632       0.00310332       0.05142541
H        5.17301877       5.18959307       7.71947283      -0.25453743      -0.37166610      -0.49644485
H        4.88188633       4.76444463       7.15154545       0.25448471       0.37154913       0.49640858
H        9.35664336       8.93667097      32.52842716      -0.39870948       0.46210441       1.03310430
H        9.59256174       8.66308531      31.90577083       0.39260954      -0.45505804      -1.05624735
H        2.95946663       4.23225973      14.49901662       0.68328309      -0.36750811       0.93401885
H       13.72780594       4.45300427      13.94742492      -0.67483854       0.37117270      -0.91102189
H        8.60305322       8.17743858      42.63494478       0.00017998      -0.00069137      -0.01103775
H        8.55832657       8.10765580      41.89127169       0.00101610       0.00183165       0.01100021
H       10.02095450       0.98764526      14.98618247      -0.29880002       0.42266753      -0.27104855
H        9.58863718       1.51673899      14.64181759       0.35953051      -0.39222208       0.25841722
H       13.50843260       9.41269228      38.84016349       0.32579660      -0.22489648       1.30353320
H       13.34173474       9.52150301      38.15288153      -0.31591737       0.20218566      -1.31442189
144
Lattice="11.174675241468789 0.0 0.0 5.587337620734394 9.677552638152974 0.0 0.0 0.0 46.84306309572773" Properties=species:S:1:pos:R:3:forces:R:3 energy=38.644985942784075 pbc="T T T"
Pt       0.01458830       0.02218040      20.01298141      -0.36021698      -0.11868110      -1.07152450
Pt       8.31055139       9.66146261      19.93466911       0.27214769      -0.07404520      -0.98379207
Pt      11.21073977       9.63118636      20.02014347      -0.28809264       0.33428869      -0.76085842
Pt       8.39715094       0.02015616      19.99809843       0.01852531      -0.47701013      -0.54858863
Pt       1.42718785       2.42650522      19.95573321      -0.32938996       0.42568910      -0.63403076
Pt       4.18725096       2.39480042      19.99215949      -0.00827792      -0.15538488      -0.70642763
Pt       6.99839827       2.40771261      19.97961576      -0.29747358       0.22375156      -0.56063193
Pt       9.74156966       2.39593021      19.99589692       0.24152611       0.38514486      -1.08227456
Pt      13.97182161       4.84546963      19.98703360      -0.24443556      -0.00491312      -0.85057628
Pt       5.55873863       4.80295362      19.97485856      -0.20644289       0.05603977      -0.70362639
Pt       8.37422882       4.85162829      19.96288741      -0.04670667       0.12478619      -0.55909026
Pt      11.12740249       4.83970054      20.00678029       0.52742589       0.15984267      -0.81932968
Pt       4.21125259       7.26793337      20.01726832      -0.15610506      -0.11449637      -0.65671891
Pt       6.92916380       7.22686858      19.96210094       0.37416497       0.08754967      -0.57827866
Pt       9.80419535       7.26968335      20.02008384      -0.60364723       0.13533491      -0.96786433
Pt      12.60626930       7.26136027      19.98582472       0.12548707      -0.17320213      -0.90690351
Pt       1.36426246       0.77860607      22.27272689       0.40938523       0.34503925       0.10608270
Pt       4.13922286       0.81413385      22.25157588       0.42162624      -0.24423580       0.19099288
Pt       7.00119266       0.86893606      22.29390934      -0.19091934      -0.80692023      -0.02028164
Pt       9.79396415       0.83403480      22.27252776      -0.28277150      -0.33977929       0.47089115
Pt       2.76857978       3.20017310      22.32494905       0.35226789       0.19370101      -0.54921031
Pt       5.62715190       3.22185353      22.30169578      -0.60910881       0.18700534      -0.38099381
Pt       8.36972785       3.20593655      22.30381305       0.28323507       0.50650173      -0.05709392
Pt      11.18326796       3.20116451      22.29135801      -0.20802128       0.36731452      -0.57755774
Pt       4.16883811       5.65717411      22.32044092       0.47354761      -0.23407428      -0.33425191
Pt       6.99175147       5.64771763      22.26348973      -0.22681297      -0.00069317       0.28576708
Pt       9.75536285       5.64555777      22.29748454       0.30149040      -0.13176982       0.03860512
Pt      12.59387621       5.64559805      22.29513309      -0.42377287      -0.01498336      -0.16874820
Pt       5.61385368       8.09832536      22.29932585      -0.23380379      -0.55335778      -0.05621126
Pt       8.38553200       8.06112850      22.30102909      -0.11028619      -0.01008849      -0.04561446
Pt      11.18087219       8.08457161      22.26360200       0.07879738      -0.09511771       0.66691929
Pt      13.96891842       8.06389267      22.29644281      -0.03133507       0.33058193       0.18303479
Pt      11.16136394       1.64608262      24.55480543       0.08815568      -0.62102920       0.15255667
Pt       2.78300758       1.59848569      24.53479985       0.05010772       0.05745722       0.25640380
Pt       5.57170471       1.64051097      24.54067379       0.06554642      -0.50088412       0.07344845
Pt       8.36756624       1.61603793      24.56651751       0.17340422      -0.23922189      -0.06550194
Pt      12.54921107       4.03285940      24.50933044       0.34199122       0.13741930       0.62018281
Pt       4.20144909       4.02035187      24.55112549      -0.27770308      -0.01611208       0.14700927
Pt       6.97532750       4.02799628      24.56636972       0.31684658       0.19114508      -0.09950170
Pt       9.81454090       4.00425531      24.55214936      -0.49735063       0.37757245       0.00835069
Pt      13.98453879       6.42174467      24.55379717      -0.31880009       0.21803600       0.08016957
Pt       5.54720390       6.42422874      24.57223093       0.64959931       0.23805718      -0.12564339
Pt       8.40018341       6.41544738      24.57854892      -0.34134561       0.26559371      -0.41084251
Pt      11.18936312       6.46353511      24.56667395      -0.05490591      -0.04881034      -0.18156181
Pt      15.37759407       8.83538052      24.54808124      -0.21605882       0.56543887      -0.09619012
Pt       6.95937065       8.89305713      24.57009400       0.20276365      -0.38785893      -0.01143961
Pt       9.75629691       8.86216449      24.57152059       0.23006439       0.15378463      -0.32982293
Pt      12.56851367       8.84641483      24.56922954      -0.02688783       0.22333041      -0.62529051
Pt      11.16488509       0.00999479      26.86032247      -0.02853436      -0.33114243       0.90513355
Pt       2.77605611       0.01408328      26.83751966       0.38955250       0.15220211       0.60059381
Pt       5.63654024       0.01176954      26.84273298      -0.54071099      -0.03727046       0.80643457
Pt      13.94382630       9.64710304      26.84301249       0.24986316       0.67731529       0.08360559
Pt      12.57826760       2.43526350      26.84521587       0.07562052       0.18691099       0.72204554
Pt       4.22847100       2.41224995      26.84260860      -0.43547574       0.06816947       0.58335018
Pt       6.98479890       2.42625736      26.87563815       0.50663131      -0.03176881       0.41771895
Pt       9.81916510       2.42026661      26.85408352      -0.31885460      -0.05535200       0.74392021
Pt       2.81267311       4.84939187      26.83820857      -0.13987163       0.01324735       0.44871077
Pt       5.61487501       4.82306916      26.86039674      -0.01952727       0.08776178       0.41180539
Pt       8.40283466       4.85943033      26.85391738       0.05254461      -0.26638612       0.88204813
Pt      11.15253304       4.84792792      26.87301159       0.42165685       0.07329702       0.19792122
Pt      15.34256276       7.32876644      26.84624218       0.36232400      -0.80586559       0.87678456
Pt       6.99365287       7.26525450      26.87112338      -0.35993904      -0.19006933       0.56673723
Pt       9.77977268       7.26139964      26.84113590       0.00897418       0.10397645       0.16483755
Pt      12.59866839       7.28559863      26.85858320      -0.48658773      -0.50317287       0.81215137
H        5.48028126       9.19577456      28.36974608       0.10245179       0.47822908      -0.34286460
H        2.98766608       0.13629625      28.37533825      -0.16954087      -0.06190163       0.11340957
H        5.67934790       0.05466950      28.41829419      -0.09107928      -0.03478420      -0.25868976
H        8.02713417       0.14441250      28.32574057       0.18463916      -0.08551798       0.61327809
H       12.48221499       2.70492442      28.39424402       0.12104780      -0.28085601      -0.22479825
H        4.23180336       2.40694091      28.40099017      -0.00334449       0.03318498       0.03216450
H        7.30719261       2.36939070      28.39756822      -0.22368702       0.06794192       0.06819183
H        9.85050465       2.40971053      28.42201079      -0.01046182      -0.02304043      -0.13605148
H       13.80523302       4.95654350      28.37867321       0.15414691      -0.07028857       0.09507401
H        5.96185708       4.64139300      28.36356977      -0.22925346       0.08002225       0.19000968
H        8.52463085       4.87426092      28.42773687      -0.08825955      -0.04061881      -0.29788905
H       11.27363915       4.78068406      28.41492324      -0.10259628       0.09087154       0.18617566
H       15.34333307       7.25508923      28.41525271      -0.04809069       0.00449095      -0.15510644
H        6.80672981       7.01400713      28.41358532       0.15833858       0.19757053      -0.20379286
H        9.44614203       7.26948900      28.33568262       0.14426872       0.02859838       0.61587745
H       12.49929487       7.24758083      28.42667996       0.06443545       0.02022610      -0.18484741
H       16.67791690       9.67080131      18.44421865       0.06298020       0.04962949       0.15057872
H        8.06121599       9.63879897      18.35535077       0.25026605       0.02681661       0.61814183
H       11.18567297       9.40390103      18.47205621       0.04056147       0.22107247       0.01462855
H       14.05252369       9.37226276      18.47532569      -0.05535226       0.26733640      -0.05359491
H       12.62733026       2.84359813      18.43285823      -0.07239353      -0.33939439       0.26666558
H        3.93061273       2.22437143      18.44682987       0.25048923       0.12219118       0.23331684
H        7.09957325       2.59774333      18.44174569      -0.13062748      -0.12075084      -0.15892015
H        9.57308477       2.40027188      18.41813308       0.19919212       0.01818901       0.40345678
H       13.92732546       4.95609971      18.39997304       0.02724624      -0.12051816       0.52256185
H        5.07064894       4.75133770      18.46371728       0.45184416      -0.00297914       0.34532130
H        8.39634592       5.03161506      18.40746929      -0.00846562      -0.13506803       0.11484142
H       11.24802886       5.16065616      18.45912751      -0.15667944      -0.26767886       0.34728435
H       15.34204567       7.22471294      18.45279087       0.06368366       0.02572055       0.09637987
H        6.83177044       7.20180464      18.39754710       0.06396340       0.00144650       0.15179871
H        9.62636603       7.57385827      18.47532600       0.13686112      -0.28268561       0.30361363
H       12.82810697       7.19454232      18.41133500      -0.23310575       0.06415700       0.47563612
H        9.36903039       7.43444843      13.41261888       1.68405318      -0.37672526      -0.13140781
H        8.67999174       7.58949313      13.46630642      -1.68627715       0.37948173       0.13501404
H        0.47641127       0.25661809      33.46819669      -0.09978555       0.46553838      -0.31055483
H       11.51422975       0.88197375      33.04966032       0.09699231      -0.46983340       0.30666038
H        4.97534042       7.66936888      14.32052510      -0.55651945      -0.36064509       0.88275957
H        4.57927053       7.41066503      14.94309431       0.54927897       0.36695045      -0.85701197
H        2.20258403       2.20945357      36.47782252      -0.55989069       0.47377825      -0.10230369
H        1.62095896       2.70215154      36.37455724       0.55779421      -0.47664991       0.09506809
H       10.60704235       6.93199736       9.01568538      -0.54076219       0.46139529       0.47973523
H       10.11881877       7.34755793       9.44700649       0.54135710      -0.45847222      -0.47242841
H        7.81125911       0.80602345      34.11617077      -0.26466757       0.36867747      -0.04660973
H        7.36256739       1.41664681      34.04250685       0.27294192      -0.37481081       0.04292714
H        4.48727567       7.39569955       1.53102387       0.07871999       0.06333425      -0.07313272
H       15.18659044       7.02632997       1.97038158      -0.07291315      -0.05515788       0.06516308
H        8.21826333       3.41030158      38.23678174       0.11046797      -1.10350060       1.13453043
H        8.26055393       2.85601389      38.80832918      -0.06157716       1.13260472      -1.17051792
H        5.27028207       2.19640477      15.51603765      -0.18105993      -0.47420609       0.17596091
H        5.04067806       1.50706761      15.75324050       0.14844008       0.50332201      -0.15853423
H        4.50138112       6.47691999      35.20337024      -1.44495416       0.50913942       0.57706845
H       14.97039993       6.72420980      35.48629711       1.44283271      -0.50173151      -0.57728446
H        7.73706000       0.36728731      15.43942439       0.18649498       0.26441073      -0.20486398
H       12.97130859       9.52587319      15.82524299      -0.23034747      -0.34446898       0.26319253
H       13.61781134       9.66486735      44.69209442       0.15866177      -0.11480722      -0.15160048
H        7.55916178       0.37163646      45.11451313      -0.18032254       0.16987254       0.15474032
H        7.19723576       1.22563848      11.07429377       0.30680823      -1.12824535       0.19581060
H        7.39940404       0.47935758      11.20109650      -0.30527765       1.12642455      -0.18544649
H       14.72229433       7.30033434      44.77229472      -1.13166237      -0.48232511       0.06949358
H       13.99312286       7.01429667      44.81384649       1.15668690       0.42708933      -0.06369626
H        6.65066831       9.54957169       2.13604074       0.37752667      -0.06863534      -0.31478173
H        7.24347023       9.47427618       1.66397034      -0.38538063       0.03108593       0.29379973
H        5.82770813       2.09481077      39.89027360       0.80281574      -0.91443968       0.03280625
H        6.35508920       1.51495682      39.89804643      -0.86472481       0.89179748       0.00597293
H       12.28200921       2.43634106       3.81038054      -0.47768453       0.33225083       0.75901443
H        1.47377987       2.19313839       3.23447573       0.47636220      -0.30243093      -0.73946321
H        9.02185915       1.18289662      30.79567847      -0.04072756      -0.67159146       0.39865807
H        8.97695110       0.52147971      31.19079592       0.04674086       0.67188203      -0.39216757
H        5.44791918       5.00489935       7.49950628      -0.20427082      -0.19659685      -0.13313045
H        4.95476884       4.52961506       7.17824599       0.20455262       0.19654825       0.13329756
H        9.28890375       8.89106946      32.71577576       0.13638701      -0.19716711      -0.47807172
H        9.49224709       8.60129380      32.03904523      -0.14342026       0.20363447       0.45760369
H        3.04053447       4.03353198      14.27689835      -0.68718702       0.51454872      -0.23561488
H       13.61884703       4.47906432      14.06131280       0.69909126      -0.51434356       0.26043761