144
Lattice="11.174675241468789 0.0 0.0 5.587337620734394 9.677552638152974 0.0 0.0 0.0 46.84306309572773" Properties=species:S:1:pos:R:3:forces:R:3 energy=38.91492854070671 pbc="T T T"
Pt       5.61501565       9.61356567      19.96819572      -0.01198957       0.37224305      -0.10535970
Pt       8.38548090       9.61191591      19.88331980      -0.27936530       0.22394182      -0.82514882
Pt       5.62086397       0.06537497      19.88102794      -0.20259626       0.23579538      -0.49358627
Pt      14.01087835       9.66672066      19.74831530       0.43221766       0.22933830      -0.64768511
Pt       1.44550231       2.38047622      19.83445132      -0.15795574      -0.08281550      -0.44102934
Pt       4.20735689       2.47881928      20.02524201       0.15238416      -0.42076108      -0.41508356
Pt       7.06536470       2.45422293      19.85245629      -0.17532766      -0.03464870      -0.74903208
Pt       9.87387233       2.50156977      19.83810724      -0.45522878      -0.85011655       0.03922321
Pt       2.76411311       4.75465643      19.79477971       0.07831427       0.85767895       0.24771373
Pt       5.53113636       4.88879676      19.84717992       0.31339049      -0.10363578       0.40093479
Pt       8.44681118       4.79862586      19.89217912      -0.28080177       0.68527621       1.22374105
Pt      11.24883723       4.83356258      19.77804798      -0.30867329       0.39286897      -0.17097864
Pt      15.29277633       7.26988437      19.80333133      -0.06108247      -0.26154059      -0.39696318
Pt       6.90407489       7.22021690      19.93114992       0.68584901      -0.11208365       2.33132577
Pt       9.84352554       7.33456612      19.93093556      -0.54089409      -0.84927452       1.08593738
Pt      12.53678119       7.32356542      19.88767607       0.53650188      -0.33193049      -0.46458501
Pt       1.41313102       0.78599947      22.24130551      -0.16158383      -0.12515746       0.31878364
Pt       4.18410265       0.87062607      22.24252498      -0.00772231      -0.51985526       0.41274050
Pt       6.97812969       0.73703861      22.17087745      -0.03874164       1.06405783       0.14484671
Pt       9.82117255       0.77482973      22.24856074      -0.36805269       0.02752443      -0.24654181
Pt       2.66108745       3.17118470      22.29436708       0.80688143       0.70635819      -0.17190346
Pt       5.55380083       3.27091224      22.26536379       0.23614788      -0.13778363       0.30408415
Pt       8.34889288       3.18380033      22.22018979       0.00059572       0.12238992       0.06307071
Pt      11.12580341       3.21552171      22.22429128       0.20429011      -0.15161076       0.14960530
Pt       4.10205006       5.68105002      22.24872233       0.00091994      -0.56111324      -0.39700896
Pt       6.94165243       5.62908796      22.29912333       0.32825509      -0.13328651      -0.30563247
Pt       9.82436322       5.62478522      22.25616150      -0.72836739       0.04598084      -0.39290830
Pt      12.54858295       5.62827040      22.24541144       0.06821112      -0.21355559      -0.34965721
Pt       5.49601428       7.99905368      22.31811449       0.40325546       0.42202091      -0.48987001
Pt       8.42112952       8.04361253      22.27038742      -0.46413225      -0.13540125      -0.36994708
Pt      11.17608990       8.05424870      22.28123337      -0.38300443       0.15807632      -0.21892843
Pt      13.83315645       8.11153555      22.32526038       1.33016932      -0.61016065      -0.86515570
Pt      11.18212222       1.52894063      24.60705248      -0.04222163       0.63229060      -0.52846485
Pt       2.86129429       1.73292839      24.65190075      -0.04408003      -1.07412314      -0.53838825
Pt       5.67442003       1.56353640      24.59966588      -0.33719558       0.34741750      -0.03318883
Pt       8.38113518       1.51377259      24.47100306      -0.01062380       0.33974689       0.72386354
Pt      12.54187590       4.01667535      24.60538182      -0.05354169       0.01654556      -0.46949324
Pt       4.18418244       4.03601390      24.60982634       0.61825705      -0.00734616       0.00122976
Pt       7.03112760       4.08829180      24.63603617      -0.59629619      -0.87526119      -0.31118500
Pt       9.73479547       3.97077415      24.50177554       0.11957765      -0.07709839       0.51307499
Pt      13.95970901       6.42071810      24.53989591      -0.19797367       0.12787718       0.75439668
Pt       5.56157441       6.40151672      24.57038892       0.06573515       0.05218671       0.47405747
Pt       8.29418533       6.49857818      24.59387915       0.53064823      -0.29931962       0.18667881
Pt      11.11046682       6.37612666      24.54806668       0.16691938       0.30251038       0.69954246
Pt      15.38804738       8.77107378      24.62154737      -0.25233555       0.47759119       0.02675824
Pt       7.01891211       8.89001960      24.51403318      -0.18134120       0.01761489       0.60908514
Pt       9.78236633       8.81881665      24.52655284       0.00881786       0.65987700       0.45984313
Pt      12.54527605       8.77679951      24.58988283      -0.00866025       0.53646743       0.75947511
Pt      11.14677675       0.09874336      26.92818282       0.63187182      -0.66790092      -0.04463692
Pt       2.79162639       0.02315434      26.88203124      -0.23360762      -0.03556916      -0.70851946
Pt       5.55095060       0.04325595      27.01139268       0.69546652      -0.26361161      -0.23371381
Pt       8.45580521       0.08454125      26.94529688      -0.76951224      -0.42486224       0.11497023
Pt       1.44299808       2.46017630      26.93954404       0.03262113      -0.23503536      -0.32483706
Pt       4.31234207       2.42148435      27.02907263      -0.79365104       0.57095307       1.10746109
Pt       7.01985948       2.47114017      27.07434118      -0.35537559      -0.35012361       0.35149786
Pt       9.76401392       2.46941765      27.00860293      -0.15638658      -0.35047123      -0.02859041
Pt      13.98217004       4.89416341      26.88717072      -0.09782174      -0.13191946       1.03294361
Pt       5.62854520       4.87508889      27.11796123      -0.48253104      -0.47196716      -1.56809998
Pt       8.35361716       4.85439744      26.95403712       0.83695328       0.32953960       0.12685464
Pt      11.17708239       4.76306860      26.85442439      -0.34048992       0.90090561      -0.00283824
Pt       4.29504855       7.23364959      27.00244623      -1.01365185       0.47943828       0.21645887
Pt       6.93174687       7.24147071      27.08384333       0.75768721       0.49184206      -0.98906952
Pt       9.77325221       7.34460884      26.97392889      -0.16945526      -0.38064259       0.08499245
Pt      12.57426628       7.36328841      27.07404823       0.11663939      -0.50973433      -0.70322376
H        0.06860672       0.10349892      28.45789931      -0.02502018      -0.01841861       0.47883740
H        2.65558955       0.16079406      28.37758792      -0.00540549      -0.02953375       0.98831207
H        5.61365185       0.01903752      28.55285050      -0.04703936      -0.00585260       0.20503160
H        8.40883031       0.17840404      28.50178814       0.01919997      -0.11768223      -0.06536002
H        1.37440818       2.32145578      28.45304967       0.00308815       0.06143497       0.72354937
H        4.03811329       2.50124441      28.64706101       0.38946944      -0.09328298      -1.22449803
H        6.88413926       2.50376448      28.65439483       0.15207356      -0.05394612      -0.59259641
H        9.57603141       2.18693039      28.53351851       0.15390727       0.27285525      -0.13997473
H       13.89525888       4.80659352      28.48249564       0.08736867       0.13192177      -0.61788934
H        6.02073133       5.00923312      28.53854989       0.05291973       0.00794420       1.51934981
H        8.51328345       4.86498990      28.49964176      -0.00655811       0.01668517       0.06673942
H       11.05372071       4.63821764      28.38173695       0.06182707       0.07558812       0.46011463
H        4.42988927       7.38638984      28.55262692      -0.18526059      -0.12838085      -0.13332379
H        6.87629583       7.13999005      28.59368576       0.06209086       0.13175285       0.67708129
H        9.51968134       7.61682650      28.49446315       0.17625582      -0.21471927      -0.16005813
H       12.39030173       7.16137701      28.58477842       0.08554395       0.06680781       0.31656247
H        5.96905721       9.46503320      18.47187687      -0.26385820       0.12866032      -0.33831966
H        8.10266986       9.43793167      18.30651681       0.41630894       0.18130958       0.77580035
H        5.67456271       0.19456424      18.31557970      -0.04994985      -0.04696969       0.23036803
H       14.34726330       9.46682463      18.17966079      -0.35158965       0.27405366       0.96804512
H        1.47697547       2.46837961      18.26445927      -0.01695129      -0.14212546       0.31141308
H        4.38194281       2.42841818      18.49624020      -0.06230118       0.04030025      -0.44916919
H        7.17898178       2.66985948      18.26540224      -0.12976848      -0.18435583       0.71977758
H        9.89876231       2.59482247      18.29901971       0.01112979      -0.09265511      -0.25426644
H       13.75668258       4.82155866      18.26347857       0.17470776      -0.03897561      -0.15861548
H        5.67319290       5.37474207      18.39110291      -0.09822258      -0.27322164      -0.33402669
H        8.45374191       5.31215675      18.48523357       0.04722834       0.15145676      -1.25687230
H       11.27474112       4.88527158      18.21133201      -0.04406589       0.00283233       0.30092707
H        4.23786012       7.28869874      18.21477126      -0.16088063      -0.01870838       0.68963963
H        6.93255401       7.16832028      18.48046816       0.07925478       0.00523271      -2.39176702
H       10.14895566       7.58891593      18.49627991       0.02649985       0.07843640      -1.49322402
H       12.53408880       7.52919834      18.33279288       0.04197378      -0.21239962       0.23147695
H        9.27501967       9.55724252      13.03466519      -0.37427476      -0.45351538       0.25641537
H        4.12089399       0.39667994      12.74932769       0.38674513       0.46068105      -0.24492870
H        1.50582280       0.02318343      32.39883793       0.47280970       0.01844664       0.27738759
H        2.16725060       0.04151816      32.78157797      -0.49659783      -0.01196412      -0.29154950
H        4.28329981       5.80612493      15.20819434      -0.57408857      -0.96214235       0.08413833
H        4.64824506       6.42699101      15.17923422       0.58671677       1.02343929      -0.01977024
H        2.12267726       3.27576051      38.46791490       0.02941934      -0.63360268      -0.54093134
H       13.25881580       3.83125451      38.93576028      -0.06215025       0.64480549       0.53417653
H        9.45626384       7.60636278       7.57266937      -0.52578062       0.19651638       0.36377874
H        8.85389891       7.83193675       7.99024920       0.52339512      -0.19721006      -0.36432791
H        6.44274425       1.69965794      33.68385314       0.40936518      -0.40758133       0.46664575
H        6.86888208       1.28645426      34.17366868      -0.41709518       0.40315235      -0.48197621
H        5.20505654       5.93527763       5.81297656      -0.00280919       0.03107461      -0.03062493
H        5.24343908       5.45260486       6.38194794      -0.00124596      -0.02799237       0.04077590
H        7.57728105       2.60094988      36.58393806       0.18420619      -0.03612452       0.00786552
H        8.31596024       2.45392815      36.59387173      -0.18539429       0.04022671       0.00649358
H        4.77065193       2.94355573      14.45865153      -1.27217400       0.86409259       0.61495936
H        4.15779800       3.37055117      14.74783488       1.27679813      -0.92804617      -0.59058654
H        3.77747918       4.81703100      33.93037153      -0.25082681       0.54948616       0.32678288
H        3.49617105       5.42775444      34.30104058       0.25361544      -0.54368812      -0.33392796
H       11.72071469       8.32266269      15.27084852      -0.38046983      -0.24476236      -1.26013732
H       11.92410798       8.45540762      15.94589734       0.38097915       0.25225505       1.25734663
H        8.36157498       0.75160800      45.56857266       0.88947886      -0.70782423       0.12484378
H        7.80123712       1.19736428      45.48950309      -0.88952565       0.70753551      -0.12569559
H        7.29781744       2.20119685      10.40182728      -0.61609936      -0.35582733      -0.00210136
H        6.63315464       1.81598455      10.39597700       0.60946769       0.35352260       0.00798019
H       14.08318222       6.83670353      41.34728408      -0.30236921       0.23196597       0.10249832
H       13.50898118       7.28745761      41.55593902       0.29588413      -0.23575141      -0.11461259
H        7.28138469       9.18206239       2.69089593       0.57749170       0.30914614       0.39236760
H        6.72614254       8.89154324       2.31774154      -0.57572997      -0.29980505      -0.38454732
H        5.20474398       3.51845650      39.19305975      -0.51895124      -0.46968067       0.54775226
H        4.73993931       3.11571946      39.66269211       0.55595505       0.46809226      -0.54547602
H        2.55002428       2.62632806       4.27686945       0.43522507       0.31029567      -0.21448889
H        1.99737012       2.22822060       4.54950960      -0.43511555      -0.31841934       0.21036613
H       14.89532954       7.99055189      32.27204635      -0.14814621      -0.09120090       0.10941176
H       15.43015962       8.29670997      31.85563684       0.15619349       0.08859637      -0.13413832
H       14.81900430       6.42172776       9.86639280       0.19648886       0.23877631      -0.59048909
H        3.86818625       6.69896918       9.18669740      -0.19289677      -0.24616669       0.58934140
H        9.45677412       8.15511552      31.15950620      -0.44186160       0.41634211      -0.59947181
H        9.84079715       7.79720221      31.66378695       0.45709360      -0.42234460       0.57378286
H       13.99853580       5.10426835      12.61510986      -0.76558226      -0.21914800      -0.06853919
H        3.52161626       5.30892928      12.65829081       0.74811137       0.22507182       0.03014207
H        8.49276371       6.37919001      41.92235384       1.11632681      -0.14645237       1.04241526
H        7.97529807       6.44717366      41.43799058      -1.11507440       0.14615437      -1.04560041
H       10.48502751       0.14628172      15.51093390      -0.11878780      -0.17802835       0.15176426
H       15.71987271       9.32435605      15.95638565       0.12364925       0.17107376      -0.16229807
H       11.30654450       7.75674839      38.51801811       0.34955797      -0.19707018       0.35009608
H       11.80955884       7.47558076      39.01821462      -0.34220845       0.19091703      -0.34030995
144
Lattice="11.174675241468789 0.0 0.0 5.587337620734394 9.677552638152974 0.0 0.0 0.0 46.84306309572773" Properties=species:S:1:pos:R:3:forces:R:3 energy=38.83820562903125 pbc="T T T"
Pt       5.62867159       9.67631438      20.01705513      -0.26326454       0.06290384      -1.16503608
Pt       8.40701220       9.67572629      20.00179441      -0.24194546       0.03743475      -1.24870706
Pt       5.59264590       0.01825029      19.96914983       0.12681608       0.02654587      -0.37638023
Pt      13.97826936       9.67151538      19.98756927       0.11024660       0.25036943      -1.16691947
Pt       1.42201520       2.43119040      20.00712492      -0.18207140       0.03147673      -1.10962832
Pt       4.18327810       2.41817246      20.04254196       0.12805124      -0.13456641      -1.13777137
Pt       6.97875434       2.43968329      19.97640721       0.20432301       0.19722728      -0.49170578
Pt       9.79629215       2.41803886      19.97098751       0.09154388       0.04015678       0.00056950
Pt       2.81536797       4.82652018      20.00024665      -0.54768848      -0.13006158      -1.33210075
Pt       5.54951137       4.85847225      20.00267807       0.32615218      -0.33762497      -0.54420489
Pt       8.39673244       4.85778883      20.00245802       0.33284348      -0.46541369      -1.51246059
Pt      11.17608639       4.87690391      19.98698909       0.00489075      -0.23431699      -1.55562556
Pt      15.33342893       7.23568368      19.96921746       0.17375389       0.21795912      -0.07576450
Pt       6.97239224       7.18546016      20.02514176      -0.15277265       0.81996191      -2.64465070
Pt       9.78418450       7.27496080      20.00310030      -0.16522321       0.37156814      -2.06333017
Pt      12.57686079       7.28005088      19.99373184      -0.05168226      -0.08309369      -0.69812936
Pt       1.43826898       0.82977469      22.30443802      -0.49608231      -0.24204470      -0.05421274
Pt       4.18327550       0.84137369      22.29601600       0.32314348      -0.62902170       0.03271446
Pt       6.96692279       0.82176135      22.27852988       0.00176326      -0.13245477      -0.11971417
Pt       9.75727514       0.77303071      22.25105067       0.30577439       0.45982641       0.52901584
Pt       2.77870371       3.20348577      22.27816036      -0.01305606       0.40629706       0.48358443
Pt       5.54182477       3.23616670      22.27796395       0.67589885       0.06904955       0.24050692
Pt       8.38936097       3.22170429      22.26436452      -0.24386016      -0.00845225       0.46834910
Pt      11.17993478       3.22051290      22.30893897      -0.16022807      -0.21210575      -0.58445805
Pt       4.14904780       5.62931617      22.27749891       0.25338891       0.40137005       0.35217381
Pt       6.97304642       5.66353024      22.25014793       0.12024793      -0.38246217       0.72429758
Pt       9.81894193       5.62245146      22.26593304      -0.62402040       0.35675809       0.40869668
Pt      12.55552566       5.62596822      22.31079949       0.26961002       0.40136775      -0.55934948
Pt       5.62640651       8.09456811      22.28689592      -0.56509250      -0.34504542       0.12919126
Pt       8.33854635       8.06183577      22.28352531       0.68176842      -0.13606048       0.05749733
Pt      11.17465710       8.06306711      22.27864052      -0.04675731       0.10661595       0.14088953
Pt      13.98841427       8.09987726      22.27164686      -0.19013618      -0.42710039       0.16943315
Pt      11.18516691       1.63138707      24.52619417      -0.12030681      -0.40459293       0.21583873
Pt       2.84724708       1.63611823      24.55484540      -0.34693980       0.01933547       0.25041184
Pt       5.63048675       1.60133405      24.54316705      -0.24036500       0.07021298       0.23177803
Pt       8.37424507       1.56446846      24.55096719       0.16746625       0.47471592      -0.16633290
Pt      12.54540478       4.05830506      24.52908330       0.53783423      -0.50658011       0.41838357
Pt       4.21629636       4.02144180      24.54725451      -0.32855102       0.01247011       0.16264157
Pt       6.97439873       4.05069796      24.56162321       0.32795838      -0.26834992      -0.17406601
Pt       9.76388152       4.01725020      24.54175962      -0.27040139      -0.02515876       0.06252692
Pt      13.95716191       6.44227332      24.53717501       0.09020691       0.01765705       0.20536405
Pt       5.58322644       6.40845608      24.57644869      -0.08719203       0.50525677      -0.39255118
Pt       8.36058712       6.47105018      24.60717482       0.03893499      -0.34984902      -0.95344794
Pt      11.18210437       6.40315089      24.55335014      -0.35085070       0.59691405      -0.11757373
Pt      15.33334860       8.83511974      24.55334808       0.44387940       0.15658045       0.07698989
Pt       6.99174591       8.86852410      24.55686478      -0.23438589       0.15691109      -0.02404265
Pt       9.77526006       8.86129030      24.52299096       0.05690469      -0.00932539       0.11562406
Pt      12.53797043       8.84412623      24.57788998       0.12774861       0.01713666      -0.34658730
Pt       0.03095505       0.04501846      26.86497602      -0.49840069      -0.36990851      -0.39593938
Pt       2.78958309       0.00466564      26.81953213       0.08344876       0.11160774       0.60293275
Pt      11.15685566       9.64295929      26.86996523      -0.21288967       0.45919213       0.64301211
Pt       8.36833612       0.02403721      26.85673986      -0.05589810      -0.33977672       0.67815447
Pt       1.40493581       2.41931693      26.83987970      -0.08929236       0.28527910       0.45783228
Pt       4.18947214       2.41233275      26.88814440       0.47153780       0.29833311       0.62381345
Pt       6.99731121       2.45708207      26.88416064      -0.04627729      -0.47389394       0.84840935
Pt       9.75000628       2.41290470      26.86037706       0.44490039       0.08591034       1.40621924
Pt      13.95427275       4.82993268      26.85314460       0.20477116       0.06935680       0.57245898
Pt       5.59223286       4.85303382      26.86478259       0.36796013      -0.15262482       1.98769736
Pt       8.41771102       4.84710800      26.85873025      -0.22671655      -0.12774579       0.70526910
Pt      11.19612037       4.84281184      26.82916140      -0.15702705       0.01238526       0.93454981
Pt       4.19094763       7.22612170      26.85592423      -0.16117553       0.25857535       1.11746764
Pt       6.99402479       7.27628559      26.87485743      -0.55785203       0.13680327       0.80526316
Pt       9.73025838       7.24700467      26.81488016       0.62947679       0.07419407       0.80817902
Pt      12.54907662       7.27390330      26.86456651       0.35765746       0.06284008       0.36562118
H       16.45447364       9.63361174      28.34716736       0.10343960       0.06023555       0.68370932
H        2.67933250       0.12186456      28.36797890       0.06657589      -0.06524047       0.11141311
H        5.32812889       0.15805166      28.41237592       0.15183496      -0.17128330      -0.18934557
H       13.86679373       9.65831665      28.42400059       0.04387074       0.04263789      -0.36417159
H       12.53711078       2.54173696      28.39303689       0.04203960      -0.07919924       0.03668810
H        4.54116295       2.69581462      28.40502434      -0.30537817      -0.23924194      -0.30377689
H        7.04322632       2.18450655      28.45134093      -0.02328083       0.28758666      -0.50905710
H        9.88825836       2.48125067      28.48419063      -0.17489700      -0.08035675      -1.06075108
H        2.92760434       4.86613998      28.41211793      -0.14104456      -0.04011795      -0.13456024
H        5.79025350       4.84087072      28.52151950      -0.26112023       0.04373678      -1.42187572
H        8.54757161       4.86529601      28.41743295      -0.10999257      -0.03017344      -0.07130595
H       11.14805861       5.08199291      28.38499532       0.10265362      -0.23751365      -0.20339793
H       15.29613769       7.17648528      28.45448517       0.07355567       0.05261635      -0.65075344
H        6.76932562       7.51940222      28.41119328       0.18325153      -0.18188037      -0.13550743
H        9.92822118       7.06486242      28.35281469      -0.15372473       0.20407619       0.06258451
H       12.69417300       7.53972294      28.38708974      -0.09935926      -0.17548861       0.16954061
H       11.08993897       0.08447441      18.43662259       0.15243557      -0.08886454       0.42034867
H        2.78798379       0.17084954      18.40895886       0.01215438      -0.21293879       0.65739644
H        5.66252120       0.11121620      18.41994846      -0.03474255      -0.04568491      -0.05024682
H        8.51940732       0.10952157      18.40394424      -0.14831667      -0.10176221       0.56694525
H        1.61854269       2.51877385      18.43471590      -0.26364094      -0.10242710       0.41097391
H        4.10361439       2.31388553      18.48332739       0.10697564       0.08657368       0.05238469
H        7.19858312       2.84690008      18.47993780      -0.16560888      -0.29683825       0.05936189
H        9.84305852       2.51988544      18.44239850       0.03465050      -0.06536696      -0.48436630
H        2.76130870       4.60142987      18.40926912       0.03653666       0.29429311       0.68307662
H        5.55034761       4.77808514      18.45719792      -0.01278661       0.04938293      -0.24865372
H        8.70799065       4.65600504      18.42464827      -0.38111413       0.31386256       0.80088121
H       11.04329767       4.93233567      18.36752330       0.24887560      -0.06151545       0.96429080
H        4.09453670       7.03979946      18.44710751       0.03615100       0.09941454      -0.43442622
H        6.86726125       7.22802435      18.32052940       0.17507979      -0.05888367       1.72500265
H        9.71862498       7.53435415      18.34061193       0.08364571      -0.37927812       1.53177547
H       12.53353791       7.30333262      18.42248781       0.04326319      -0.03580339       0.20984292
H        9.00508460       7.73773137      13.12334389       0.17642963       0.26536152      -0.09375631
H        9.40479302       8.34335626      12.90646656      -0.17383744      -0.26369390       0.09423506
H        0.55496533       0.65122290      33.14642303      -0.10373219      -0.08231568       0.13353951
H        0.95227463       0.96470877      32.60139125       0.10138477       0.07576579      -0.15113898
H        4.88648578       7.70464508      14.88521037       0.07764835      -0.04001562       0.01231430
H       15.32112766       7.79096807      14.84119718      -0.06667102      -0.06023889      -0.01120821
H        2.66213024       2.46170619      36.84435036       0.52026892      -0.27690423      -0.12855080
H        2.03003353       2.79840520      37.00047955      -0.51747698       0.27748814       0.12652040
H       10.53336502       7.74421867       8.55437595      -0.43746245       0.02262957       0.08229176
H        9.78583063       7.77924458       8.68931489       0.43910873      -0.01992065      -0.07525826
H        7.54186835       0.75510300      33.91832093      -0.63563949       0.49307978      -0.54440027
H        7.03163639       1.15277031      33.48817032       0.63613546      -0.50085914       0.52843630
H        4.69456109       6.74335238       1.90911181      -0.16862454       0.23158880       0.12148464
H        4.31668260       7.32349249       2.21407628       0.14612275      -0.25008661      -0.13059200
H        8.27904285       2.85264830      38.32090580       1.04122972       0.59458542      -0.63503426
H        7.72836913       2.53565322      38.65082325      -0.94520652      -0.55639911       0.57737160
H        5.95231080       1.61614449      15.99124904       0.09273198      -0.13308313      -0.25255176
H        5.66621756       2.04331430      16.52478749      -0.11818282       0.17551792       0.16488151
H        4.32422348       6.73014860      34.69965219       0.03253011       0.52157068      -0.21876027
H        4.28191102       6.05395731      34.98175462      -0.03439211      -0.52019155       0.21824528
H       13.60113868       9.15897276      16.01790998      -0.24090545       0.00013884       0.03587435
H       12.87603495       9.23084362      16.20989271       0.19754431      -0.05703684      -0.08934250
H       13.83743101       9.59902397      44.82514900       0.36201289      -0.43945763      -0.32732460
H        7.85338523       0.42906381      45.16951264      -0.37640309       0.50359404       0.31361187
H        7.73732209       0.79446872      10.77814921       0.01471931       0.01007127      -0.01226802
H        7.25235011       0.45174446      11.23222649      -0.01797150      -0.01435164       0.01570378
H       14.48076462       6.97050379      45.32850036       0.25806627      -0.22669367      -0.24673440
H       14.02881065       7.32332641      45.79194580      -0.23822069       0.16131848       0.27094081
H        6.57524786       9.66843719       1.91622276      -0.09387844      -0.36932948       0.10467759
H        6.39841525       8.99445613       2.20971275       0.08136103       0.27184686      -0.15758884
H        5.64182167       1.80050438      40.30790751       0.22648284       0.01239426      -0.51308757
H        5.97203985       1.82705612      39.61989677      -0.33029190      -0.04287881       0.57131153
H        1.32691292       2.20976391       3.45796641      -0.13511482       0.20001693       0.42382067
H        1.55704678       1.96066301       2.80545451       0.16417833      -0.08276073      -0.37204611
H        8.90466600       0.52271178      30.56843333      -0.61954564       0.63971651       0.47406209
H        9.38247275       0.04872967      30.29937067       0.65676880      -0.62527049      -0.23315999
H        4.67732991       5.66295697       7.85955716      -0.00327430       0.10440865       0.00520211
H        4.70048462       4.91894601       7.82375676       0.00320977      -0.10393120      -0.00506353
H        9.84195417       8.97816972      32.44432979       0.00070937       0.33579794       0.23968469
H        9.84203733       8.38473833      32.00492913       0.00003728      -0.32565597      -0.26100349
H        2.89258532       4.72801895      14.17801169       0.35716301       0.19168270       0.57711422
H       13.69572623       4.53341417      13.57899655      -0.35055837      -0.18198347      -0.56029922