144
Lattice="11.174675241468789 0.0 0.0 5.587337620734394 9.677552638152974 0.0 0.0 0.0 46.84306309572773" Properties=species:S:1:pos:R:3:forces:R:3 energy=38.653726444145974 pbc="T T T"
Pt       5.58970776       9.67416314      20.00912903      -0.05238597      -0.03550488      -0.33210582
Pt       2.79711143       0.00415624      20.00441326       0.01234875      -0.11362965      -0.99784136
Pt       5.59013514       0.01503168      20.00342609       0.07774451      -0.12979470      -1.51873684
Pt      13.96969783       9.67544808      19.98801035      -0.03888228       0.00229857       0.05208258
Pt       1.39761811       2.41935858      19.99431749      -0.09203650      -0.09610656      -0.76948726
Pt       4.18593596       2.41788687      20.00947602       0.01271771       0.04230802      -0.90081924
Pt       6.98530518       2.43132066      20.00564504       0.00267729      -0.15667301      -1.47656560
Pt       9.78130979       2.40972580      19.99909170      -0.01479156       0.10421582      -0.43143782
Pt      13.96241804       4.83363612      20.00989583       0.17152885       0.10827996      -0.78218365
Pt       5.59481639       4.84147763      19.99608789      -0.18937719      -0.03594480      -0.81080002
Pt       8.37753944       4.84617401      20.00494526       0.04751553      -0.08363362       0.31051883
Pt      11.19173608       4.83161325      20.00611888      -0.21001621       0.14159581      -0.74571025
Pt      15.36080081       7.25847858      20.01016105       0.13132194       0.06548909      -0.71298164
Pt       6.99089081       7.25128935      20.01039470      -0.03878741       0.05557620       0.08945666
Pt       9.78122199       7.25814848      20.00821821      -0.02348292       0.01798924      -1.14495242
Pt      12.56938318       7.25599508      19.99957187       0.02402619       0.02367138      -0.77547818
Pt       1.38601548       0.80963481      22.27214907       0.10390215      -0.03332613       0.36721322
Pt       4.19579456       0.79985202      22.27728120      -0.08123581       0.01832734       0.33233979
Pt       6.97996544       0.80471064      22.28521060       0.08175646      -0.00944983       0.17909946
Pt       9.77004267       0.80992260      22.27996526      -0.00396978      -0.07587454       0.28297487
Pt       2.78886181       3.21449813      22.27558390       0.00881580       0.04075045       0.32021293
Pt       5.59071072       3.22083444      22.27388140      -0.07459363       0.08983590       0.40160686
Pt       8.37144328       3.22455943      22.26851893       0.09466648       0.02342506       0.40172154
Pt      11.16397694       3.22679292      22.27264969       0.07459491      -0.00740966       0.39572829
Pt       4.18640277       5.64690425      22.27881313       0.07810678      -0.08423474       0.35179457
Pt       6.98149224       5.64374316      22.28501647      -0.02192586      -0.02099255       0.22588532
Pt       9.77430339       5.64424921      22.27451226       0.06270330      -0.00690238       0.46784413
Pt      12.57121844       5.63595796      22.28819683      -0.06805145       0.02763345       0.21096495
Pt       5.59525942       8.06469442      22.27827881      -0.07452086       0.01405057       0.45945796
Pt       8.38527378       8.05612659      22.28477301      -0.01150363       0.07944658       0.24640092
Pt      11.17669097       8.06221663      22.27278368       0.00909245      -0.01952933       0.32620436
Pt      13.96449127       8.05654124      22.28555963       0.02746016       0.11292826       0.17150262
Pt      11.17353189       1.61273139      24.55945459      -0.00700651      -0.03824619      -0.30614874
Pt       2.79298624       1.60349127      24.56198868      -0.02334073       0.09567641      -0.30371776
Pt       5.58657095       1.61634121      24.56788012       0.04154029      -0.01725288      -0.40712085
Pt       8.38128616       1.61884934      24.55698357       0.01534152      -0.03949600      -0.14880286
Pt      12.56908517       4.03134969      24.56326083       0.05511906      -0.03274455      -0.34775972
Pt       4.19159051       4.02605891      24.55977946      -0.00659925       0.05717183      -0.35303384
Pt       6.99353210       4.03296166      24.56296298      -0.04775824       0.01215361      -0.21703891
Pt       9.78167937       4.03196689      24.56129654      -0.05180979       0.03719641      -0.26978511
Pt      13.96856033       6.45730263      24.55422539       0.06718525      -0.08032178      -0.11142185
Pt       5.58697802       6.44952327      24.55943957      -0.02193408       0.00381629      -0.27870375
Pt       8.38506228       6.46002416      24.56775725       0.02959443      -0.09318861      -0.21634755
Pt      11.18251507       6.45310364      24.57057502      -0.14118057       0.00296474      -0.45669714
Pt      15.36678496       8.85964154      24.56169310       0.02277740       0.12346181      -0.28986311
Pt       6.99110193       8.87575082      24.56140411      -0.08960269      -0.05062683      -0.23697680
Pt       9.77903014       8.86808966      24.55524032       0.04071831       0.00687873      -0.18718378
Pt      12.56864817       8.87309358      24.56055146       0.00868647       0.04619861      -0.26206127
Pt       0.00855624       0.00272278      26.84435963      -0.09909495      -0.02087067       0.04266180
Pt       2.79896437       0.00127451      26.83900999      -0.01926194      -0.00278502       1.50053859
Pt       5.58557212       0.00421991      26.84129505      -0.01108068       0.00789740       0.63428706
Pt      13.96829585       9.67658166      26.83688359      -0.06199393       0.01015791       0.15565306
Pt      12.56894047       2.41721623      26.84409544      -0.08994542      -0.00021726       0.44316515
Pt       4.18804404       2.41310574      26.83000677      -0.02322015       0.08685110       0.43328595
Pt       6.98258722       2.42786324      26.84915114       0.01606297      -0.10720627       0.90932113
Pt       9.78038192       2.42310959      26.84379946      -0.02818238      -0.01196977       1.24993861
Pt       2.79724965       4.84383042      26.83688069      -0.04940787      -0.10863966       0.31199107
Pt       5.57664203       4.83749929      26.84494351       0.10447807      -0.02855133       0.06818078
Pt       8.38735043       4.84135047      26.85613699      -0.07991683       0.10511159       0.49783787
Pt      11.18034317       4.84428290      26.83720926      -0.10160460      -0.03553188      -0.05202242
Pt      15.36272750       7.26150310      26.85269581       0.08502279      -0.02319855       0.48577169
Pt       6.97164583       7.26215898      26.83824580       0.08013615      -0.14048304       1.63648212
Pt       9.76897394       7.26452916      26.85150396       0.24369612       0.11025174       2.08966160
Pt      12.56716470       7.26613623      26.83216970       0.05370495      -0.13191740       0.25937471
H       11.11085562       0.00546074      28.36894247       0.03681177      -0.00942155       0.63218236
H        2.82001019       0.01777197      28.45361394      -0.04653980      -0.02004124      -0.81567532
H        5.53890183       0.05458689      28.39723172       0.04329918      -0.05340644       0.05279684
H       13.86559452       9.57785280      28.36252482       0.01154477       0.01991962       0.41925904
H       12.37886171       2.41444268      28.38109572       0.13580105      -0.00036510       0.22975843
H        4.20740270       2.38224631      28.37082964      -0.03364366       0.02334305       0.36251476
H        6.90477659       2.34439824      28.42267460       0.09709026       0.08616024      -0.28103960
H        9.80193737       2.40558717      28.44414396      -0.06381761       0.02164920      -0.65046424
H        2.73817177       4.69969624      28.36990847       0.03492561       0.06788613       0.37347385
H        5.58451557       4.80297040      28.37246275      -0.00702965       0.00345659       0.60396373
H        8.34985242       4.99052820      28.40369841       0.02559379      -0.11737395       0.08945923
H       11.10217153       4.82943569      28.35347378       0.01327101      -0.00440533       0.81606871
H        4.32383420       7.22161101      28.39809227      -0.11351576       0.01609922       0.15638171
H        6.96548430       7.16734774      28.46635956       0.01693277       0.14214627      -1.01795566
H        9.91182068       7.34814898      28.52468186      -0.23137102      -0.12385365      -1.53959990
H       12.52491673       7.03697659      28.34865223       0.04748108       0.10324780       0.52291024
H        5.58741291       9.58199668      18.47403212      -0.00271714       0.06495661      -0.44504026
H        8.38579548       9.61478859      18.42456263      -0.00237827       0.06953883       0.33069274
H        5.62485377       0.06080012      18.38558366      -0.07273060      -0.18068711       1.09960926
H       13.95961317       9.62105619      18.46439728       0.06165789       0.02953246      -0.42403203
H       12.44449400       2.35522086      18.43721700       0.12664433       0.05855637       0.02841969
H        4.26559307       2.38542851      18.43796216      -0.20419882       0.09486729       0.37479797
H        6.89075813       2.37315533      18.39630127       0.23372769       0.14994958       1.01387095
H        9.86784212       2.48550814      18.45888891      -0.07277791      -0.05449865      -0.31874380
H        2.90357206       4.96485986      18.45578907      -0.11032450      -0.10658843       0.02213437
H        5.45148382       4.78256536      18.43343539       0.14392702       0.06012860       0.15298347
H        8.44202640       4.82114967      18.50056108      -0.02992919       0.00126447      -1.10777092
H       11.08713174       4.91070475      18.45017538       0.10217488      -0.05731247       0.00136063
H        4.31433366       7.33463403      18.45630930      -0.11104082      -0.06448533      -0.02004844
H        6.93006022       7.35230209      18.49874569       0.03013539      -0.04495009      -0.87852055
H        9.73794673       7.23360752      18.42192265       0.04342825       0.03270161       0.41788888
H       12.59540687       7.25758140      18.43243763      -0.01938098      -0.00417084       0.12042920
H        8.95769489       7.42423808      13.58720137      -0.48951212       0.76454639      -0.89174116
H        8.65704347       7.89601167      13.03413411       0.48369628      -0.76442403       0.89876825
H        0.90836187       0.93858216      32.83702797       0.13027576      -0.05501493       0.17198598
H       11.66319713       1.12077449      32.25148252      -0.13105711       0.04912607      -0.18823819
H        5.24034740       7.44803545      14.88167046      -0.80658442       0.67426336       0.01656845
H        4.64677495       7.95455446      14.88441248       0.80906940      -0.70614713       0.01004402
H        2.36585247       2.19931221      36.39285069       0.72920269      -0.48564929       0.05853528
H        1.76237435       2.60081768      36.34327722      -0.73044401       0.48365179      -0.06465682
H       10.71972795       7.33113201       8.92331625      -0.38234261       0.37806508      -0.04542086
H       10.17704987       7.86324510       8.85466965       0.38522354      -0.37415752       0.05177225
H        7.81420021       0.99235503      33.83538546      -0.57863891       0.29012844       0.03122348
H        7.13015886       1.33642704      33.88101051       0.58411229      -0.29665160      -0.04455080
H        4.33462009       7.20892538       1.20646839       1.27262294      -0.11880889       0.22157229
H       14.79950456       7.26687741       1.28901559      -0.98457986       0.07968055       0.53944808
H        8.64094002       2.57661899      38.73813166      -0.28561515       0.20669203       0.01527493
H        7.97962135       2.93933426      38.80095580       0.35001355      -0.14379719      -0.04209565
H        5.94997152       1.58924882      16.81188911      -0.77207559       0.18895862      -0.05879651
H        5.24433041       1.71006509      17.09357868       0.68092692      -0.11140848      -0.60459161
H        4.72206164       6.57638193      34.98519933       0.98968506      -0.45302197      -0.36784416
H        4.10157429       6.86126348      35.21495639      -0.99122131       0.45612761       0.36713967
H       13.60061209       9.54721375      16.34815649      -0.83576494       0.09698767       0.23882671
H       12.90249001       9.64904176      16.66601885       0.85835797      -0.20631331      -0.52656555
H       13.71902679       9.56662958      44.86061008      -0.03846885       0.05735438      -0.02638878
H        7.44232036       0.09013820      45.06915704       0.00226951       0.02798337      -0.01992888
H        7.66957779       0.81990892      10.69063908      -0.17381816      -1.00257397       0.55707610
H        7.55226029       0.14356060      11.06626394       0.17043485       0.99808794      -0.55559850
H       14.44473348       7.71576734      45.99329772      -0.04973671       0.79348004      -0.75274861
H       14.39262603       7.08617161      46.33943247      -0.19393910      -0.83310974       0.04225840
H        0.99859465       0.06423175       2.40290022       0.05696228      -0.55352718      -0.03524520
H        6.75352703       9.00237011       2.41052256      -0.09498145       0.32869655      -0.02553414
H        5.83569583       2.24343133      40.04356407       0.09952638      -1.04413402      -0.11196152
H        5.93798754       1.47858031      39.94275512      -0.17062794       1.03841102       0.14921398
H       12.31548252       2.48541955       3.21224009      -0.30480611       0.90016282       0.47106445
H        1.36155999       1.88216850       2.88101306       0.33429435      -0.68221039      -0.41453359
H        8.96444232       0.78876738      30.73443536      -0.11021086       0.24246764       0.23706782
H        9.23736413       0.22709118      30.33604145       0.13531126      -0.22808592      -0.08672923
H        4.67460893       5.24894824       7.87623667      -0.08326210       0.08910544       0.22066751
H        4.92063905       4.98705659       7.22769939       0.08338422      -0.08922860      -0.22094674
H        9.38029338       8.81432629      32.67320630       0.55151480      -0.27192065      -1.42309487
H        9.66657489       8.67161917      31.94317628      -0.55664027       0.28015849       1.39717531
H        2.70946960       4.51401372      14.51122585       0.09667323       0.03642328       0.63761407
H        2.60115051       4.47677226      13.78753938      -0.09129165      -0.03029274      -0.61775798
H        8.84880014       8.00863443      42.89813451      -0.09901705      -0.14309682      -0.86218715
H        8.76099807       7.88242584      42.14030390       0.10037331       0.14425536       0.86184621
H       10.22748782       1.06180638      15.50511181      -0.02443474       0.01197080      -0.09936286
H        9.97725984       1.00694105      14.79808315       0.04949863       0.03006468       0.11816894
H       13.46107094       9.59763360      38.87556709      -0.12592956      -0.04074248      -0.39001966
H       13.21649986       9.58088006      38.15764257       0.13198014      -0.01773187       0.37378651
144
Lattice="11.174675241468789 0.0 0.0 5.587337620734394 9.677552638152974 0.0 0.0 0.0 46.84306309572773" Properties=species:S:1:pos:R:3:forces:R:3 energy=38.68478069038534 pbc="T T T"
Pt       5.59205829       9.67118835      20.01707246      -0.10665168      -0.18115146      -1.54987860
Pt       2.79964168       0.00652381      20.00697710       0.02018033      -0.16881427      -0.78844684
Pt       5.59291652       0.02669343      20.00494718       0.06945322      -0.26869497       0.27062380
Pt      13.96941396       9.67251696      19.98005158      -0.06252718      -0.03197810      -0.56331384
Pt       1.39830840       2.41947403      19.98826503      -0.16465911      -0.18128310      -0.97310245
Pt       4.18520520       2.41682844      20.01669109      -0.01049139       0.09142561      -0.39824438
Pt       6.98588950       2.44022469      20.00992636       0.06774523      -0.22881997      -0.56573635
Pt       9.78479878       2.40144147      19.99852304       0.03166674       0.24132402      -1.18522286
Pt      13.95822762       4.83192051      20.01833127       0.28745168       0.14090033      -0.83646452
Pt       5.60094259       4.84425477      19.99313560      -0.30916154      -0.06577448      -1.02437639
Pt       8.37585757       4.85190983      20.00821741       0.19450603      -0.17772649      -1.55614567
Pt      11.20574461       4.82634229      20.01131193      -0.39772090       0.22293806      -0.83631206
Pt      15.35676859       7.25742774      20.01687650       0.22623627       0.12008364      -0.80857295
Pt       6.99468035       7.24674569      20.01852733      -0.14610270       0.23943040      -1.33688474
Pt       9.78383090       7.25786782      20.01537171      -0.04063115       0.01970596      -1.04366922
Pt      12.56729390       7.25270587      19.99882674       0.05328894       0.04360874      -0.76673234
Pt       1.37752360       0.80999112      22.26401318       0.19038147      -0.02625019       0.42584157
Pt       4.19906423       0.79303737      22.27410294      -0.15657583       0.07604373       0.46370336
Pt       6.97591275       0.80309001      22.28832122       0.16090094      -0.03518015       0.18747714
Pt       9.76572837       0.81196121      22.27872423      -0.02413058      -0.12440207       0.24013385
Pt       2.78373721       3.20636202      22.27243464       0.03622633       0.07253314       0.35061750
Pt       5.59414426       3.21763048      22.27064723      -0.17711072       0.15754925       0.53711170
Pt       8.36324598       3.22314056      22.25976652       0.19751114       0.06847697       0.46735048
Pt      11.15517035       3.22849540      22.26656399       0.13022690      -0.03960425       0.48084980
Pt       4.18293289       5.64834497      22.27879998       0.11992551      -0.16345765       0.37854996
Pt       6.97954712       5.64488920      22.28759793      -0.03953560      -0.05197768       0.10940019
Pt       9.76959367       5.64172447      22.27013196       0.12254624      -0.00444801       0.57557517
Pt      12.56910090       5.62930400      22.29359499      -0.08853646       0.04765206       0.18964048
Pt       5.60018199       8.06564206      22.27678744      -0.12092053       0.00143570       0.54050195
Pt       8.38886230       8.04891760      22.28855287      -0.03802199       0.14469449       0.22006768
Pt      11.17914099       8.05993770      22.26596812       0.01765320      -0.05204119       0.44695830
Pt      13.96159944       8.05079112      22.28837627       0.03408974       0.19454819       0.08611165
Pt      11.17287016       1.61382242      24.55822468      -0.00058750      -0.10071141      -0.30647191
Pt       2.79194175       1.59669627      24.55975535      -0.05655219       0.18733728      -0.31768760
Pt       5.58770485       1.61810960      24.57208863       0.05238340      -0.03783379      -0.48214746
Pt       8.38198891       1.62399294      24.55214591       0.03691642      -0.08304510      -0.07860865
Pt      12.56626801       4.03047771      24.56337276       0.10071809      -0.05606214      -0.32178643
Pt       4.19286273       4.02108750      24.55850091      -0.01756912       0.10328276      -0.36875227
Pt       7.00110012       4.03320224      24.56200158      -0.07795919       0.05971362      -0.12305506
Pt       9.78578935       4.03115954      24.56014888      -0.09787599       0.10008071      -0.23525929
Pt      13.96844843       6.46210268      24.54848765       0.09611864      -0.14992541       0.02411104
Pt       5.58633461       6.44862568      24.55704091      -0.01858985      -0.02258689      -0.27506280
Pt       8.38773657       6.46577687      24.57200058       0.03768466      -0.19531593      -0.23320138
Pt      11.18958061       6.45378016      24.57884962      -0.24706554      -0.00836200      -0.61838943
Pt      15.36667643       8.85180363      24.55894259       0.07563003       0.23556423      -0.23409896
Pt       6.99707088       8.87922122      24.56002639      -0.19223343      -0.06283879      -0.23713800
Pt       9.77858748       8.86598614      24.55019966       0.10406721       0.00936010      -0.21621694
Pt      12.56816733       8.87511286      24.55979068      -0.01206645       0.06556725      -0.19723448
Pt       0.01391344       0.00567852      26.84560680      -0.20958477      -0.05895463       1.05038595
Pt       2.80479309       0.00347862      26.83580451      -0.06635401      -0.04376763       0.68369007
Pt       5.58508492       0.00697178      26.84138181      -0.07166360       0.04071574       1.09339714
Pt      13.96952968       9.67573215      26.83163548      -0.15953593      -0.03736790       0.88040340
Pt      12.56812621       2.41570685      26.84602064      -0.30774900       0.00008793       1.16414058
Pt       4.18380519       2.40829608      26.81966310       0.00026457       0.14111449       1.00606704
Pt       6.98153116       2.43548690      26.85481309       0.03548714      -0.21067132       0.88538849
Pt       9.78160354       2.42530392      26.84594582      -0.06923107      -0.02550972       0.73329514
Pt       2.80015283       4.84932407      26.83017501      -0.12386445      -0.29725632       1.15395904
Pt       5.56774553       4.83448496      26.84672958       0.21261610      -0.06704332       1.03899217
Pt       8.39229942       4.84231219      26.86611082      -0.16034378       0.27148229       0.93920094
Pt      11.18583591       4.85014216      26.83197008      -0.31948248      -0.11138560       1.33003235
Pt      15.35930452       7.26378490      26.85939120       0.18136948      -0.03694855       0.63978642
Pt       6.96228157       7.26453629      26.83582898       0.12371430      -0.15033987       0.93030798
Pt       9.76454625       7.26903560      26.86141324       0.19113505       0.07019550       0.61564738
Pt      12.56348571       7.27493264      26.82273477       0.07162477      -0.50029761       1.57687414
H       16.67966548       9.67638123      28.43091431       0.11182063      -0.00875486      -0.47057953
H        2.85507262       0.02622263      28.39098291      -0.07340372      -0.01984506       0.09281991
H        5.47014096       0.07478070      28.42414736       0.13007829      -0.09155802      -0.44321966
H       13.80315687       9.49288469      28.38845128       0.10894947       0.12506206      -0.32561815
H       12.23980732       2.40800847      28.41157589       0.37469023       0.00814166      -0.55473995
H        4.20183212       2.35303039      28.38958142      -0.04901114       0.05921585      -0.15976451
H        6.87436388       2.27096009      28.42036823       0.13485232       0.15976246      -0.27871352
H        9.79594637       2.39286946      28.41133849      -0.08317365       0.02061074      -0.11574002
H        2.70560774       4.62168254      28.40581955       0.10145523       0.21034402      -0.51323360
H        5.59020629       4.78105068      28.43303387      -0.02644251       0.03410672      -0.45190382
H        8.34009768       5.09683885      28.43531029       0.05144212      -0.27242795      -0.46457422
H       11.02193931       4.81858722      28.42156075       0.16051270       0.01549295      -0.57869828
H        4.40149009       7.19087425      28.40537116      -0.20218539       0.04048665      -0.03649887
H        6.93599916       7.12862335      28.40728531       0.04059952       0.15177120      -0.26978022
H        9.99861628       7.40025231      28.39949569      -0.18741055      -0.08584760      -0.00096442
H       12.50625442       6.87722133      28.39481920       0.11283544       0.45779294      -0.79940361
H        5.58080091       9.50509708      18.41146800       0.00926240       0.23988163       0.76802278
H        8.40140472       9.58060569      18.44301115      -0.00645476       0.09640172       0.10075048
H        5.65452679       0.07318320      18.50041400      -0.01653914      -0.09658273      -0.92539537
H       13.96586907       9.57728605      18.42115754       0.05566541       0.08969525       0.28162941
H       12.35908816       2.31804722      18.42977262       0.23687010       0.09620786       0.21743281
H        4.29499580       2.38052156      18.48116419      -0.19205628       0.07865545      -0.23517033
H        6.86025260       2.36034620      18.47172562       0.17479904       0.10308968      -0.13365084
H        9.93840633       2.52646547      18.42012522      -0.19992977      -0.14190768       0.44499707
H        2.94819309       5.02521179      18.47334192      -0.15164162      -0.15377280       0.02583033
H        5.40314359       4.74549388      18.42250285       0.21714357       0.10919939       0.39881283
H        8.47696852       4.82407876      18.39496280      -0.16149254       0.02625174       0.82223886
H       11.03002471       4.94262783      18.46161797       0.17338133      -0.08187781       0.03180532
H        4.38547107       7.38464472      18.47008124      -0.18672664      -0.12502350       0.04192107
H        6.89651029       7.41942879      18.43170852       0.14086305      -0.21901172       0.57437265
H        9.70598241       7.20759662      18.44134697       0.07265449       0.06446271       0.24685831
H       12.61741172       7.23481137      18.43263670      -0.04397050       0.01531401       0.10644779
H        8.86228317       7.42307602      13.51644289       0.27107760      -0.74537212       0.73771280
H        8.67962624       7.92096699      13.02642271      -0.27642214       0.74544567      -0.73204970
H        0.99121162       1.01036560      32.86527422      -0.59518188      -0.01673274      -0.88315779
H       11.72655625       0.99847945      32.22024181       0.59514308       0.01126040       0.86849535
H        5.26029412       7.43986204      14.95339734       0.96863079      -0.98572659      -0.00932334
H        4.75454607       7.94696646      14.96489591      -0.96543235       0.95404238       0.03710591
H        2.39768290       2.24596185      36.41895395      -0.95448869       0.50162590      -0.11239167
H        1.71096630       2.60739016      36.33946908       0.95347160      -0.50400668       0.10562350
H       10.64943936       7.36097374       9.02647086       0.32842734      -0.43405727       0.11586420
H       10.21774147       7.93581012       8.87809505      -0.32567137       0.43838573      -0.10964882
H        7.86102621       1.02329555      33.84678336       0.82279754      -0.30458781      -0.07058244
H        7.18059510       1.27372882      33.89980542      -0.81614536       0.29800761       0.05758115
H        4.42755368       7.28083556       1.43372336      -1.32583082      -0.20430219       0.17825794
H       14.82360926       7.16710524       1.47740420       1.41180086       0.19651328       0.05212424
H        8.66496287       2.56021262      38.88552041       0.08269980      -0.00346430      -0.00983344
H        8.06606567       2.99964458      38.82241138      -0.01230839       0.06173142      -0.01586037
H        5.85269995       1.63295354      16.69955712       0.51855993       0.00980285      -0.56311023
H        5.21111427       1.66217646      17.04904829      -0.56758857       0.01957355       0.03549460
H        4.80919458       6.53600622      35.01900712      -1.55308318       0.89517206       0.54600465
H        4.13912184       6.92176894      35.25508964       1.55110657      -0.89198929      -0.54681534
H       13.60577992       9.56377359      16.28875945       1.32782221      -0.12493505      -0.73868132
H       12.95993637       9.61475390      16.58533367      -1.34644258       0.04740472       0.48844072
H       13.72593817       9.53022092      44.83198481      -0.22737063       0.16954936      -0.01977873
H        7.44228743       0.11868169      44.93602592       0.17180242      -0.02445196      -0.05211730
H        7.60062347       0.82581291      10.62107911       0.21555282       1.22313201      -0.86998016
H        7.49924668       0.25105286      11.02973692      -0.21927218      -1.22730207       0.86990714
H       14.33628858       7.75165609      45.75206885      -0.02946999      -1.01861584       0.56488991
H       14.32559258       7.10186321      46.17828390       0.00430660       0.88784111      -0.72067797
H        0.94713465       0.00823579       2.43855375      -0.16461232       0.34849069      -0.02934117
H        6.73551289       8.97895036       2.44521339       0.13259257      -0.52480125      -0.01086728
H        5.87509497       2.25342047      40.03567628      -0.15633260       0.84586316       0.24647625
H        5.96937604       1.55747391      39.85354278       0.07652812      -0.84830987      -0.20757237
H       12.30473769       2.57801092       3.21453742       0.36041006      -1.00601983      -0.59160495
H        1.35361342       1.92398514       2.84272788      -0.33454245       1.17596948       0.62790740
H        8.99969795       0.75973276      30.81970654       0.24884012      -0.45356706      -0.35533574
H        9.27968243       0.23087420      30.33849666      -0.22910845       0.47130921       0.48723438
H        4.59239272       5.23718640       7.79729393       0.16083512      -0.14466776      -0.32748863
H        4.90262086       4.95730590       7.16398499      -0.16079681       0.14451376       0.32753003
H        9.36023330       8.71375659      32.68953508      -0.72395664       0.04622433       1.74053955
H        9.62866376       8.69823836      32.03739703       0.71853673      -0.03760033      -1.76169944
H        2.65875843       4.59915492      14.52411038      -0.07652786      -0.03728151      -0.44446433
H       13.70316378       4.53176157      13.77680494       0.08196652       0.04308809       0.46460456