144
Lattice="11.174675241468789 0.0 0.0 5.587337620734394 9.677552638152974 0.0 0.0 0.0 46.84306309572773" Properties=species:S:1:pos:R:3:forces:R:3 energy=39.91361947777038 pbc="T T T"
Pt       5.60133189       9.64967878      20.05836855      -0.21509877      -0.12489932      -0.10637195
Pt       2.79810529       0.00319701      19.97893497      -0.06577037      -0.16186793      -0.53275961
Pt       5.63671751       0.09381010      20.01650906      -0.14594148      -0.68735236      -2.11403775
Pt      13.98531948       9.62861235      19.92692073      -0.16456424       0.38426015       0.27553025
Pt       1.40379889       2.41158279      19.92441599       0.21870089      -0.11363249      -0.17911668
Pt       4.20449361       2.40176216      20.05761570      -0.23749025       0.60829836      -1.91281736
Pt       6.98946774       2.47180084      20.01157328       0.50732321      -0.33768743      -1.55627418
Pt       9.80992961       2.36203953      19.95116304      -0.27417269       0.31047770      -0.41303232
Pt      13.92802597       4.84618361      20.09020659       0.87126285      -0.35211802      -1.31348574
Pt       5.61528949       4.85432658      19.98463562      -0.36737263       0.03706297      -0.51879799
Pt       8.41022676       4.90904549      19.97521334       0.08755867      -0.72050595       0.21657792
Pt      11.27535770       4.80654991      20.02193972      -1.11976743       0.15738983      -0.69253159
Pt      15.33124901       7.24915863      20.02716912       0.05976196      -0.28282472      -0.47955808
Pt       7.00374250       7.20143328      20.04027879      -0.07584935       0.73139715       0.47662085
Pt       9.80606591       7.28642387      20.07171816      -0.00819051      -0.05597575      -1.29821074
Pt      12.56356713       7.25875052      19.98649272      -0.11077059       0.06442208      -1.08755028
Pt       1.33149717       0.75345578      22.25762800       0.57709366       0.74200755       0.19953921
Pt       4.19103986       0.75548986      22.23325351      -0.28580952       0.16860987       0.56322849
Pt       6.93400289       0.75104137      22.33255575       0.74163890       0.81150603      -0.89347386
Pt       9.71509357       0.79274221      22.28236700       0.05122538      -0.01312548      -0.05514554
Pt       2.79732978       3.14589139      22.26264356      -0.50203109       0.20507197       0.77980614
Pt       5.59559852       3.18540266      22.26255639      -0.31320077       0.32864228       0.42613724
Pt       8.30531293       3.24888809      22.20518063       0.61712188      -0.43896654       0.70374930
Pt      11.08496335       3.24180869      22.24388446       0.49284786      -0.58901739       0.33960983
Pt       4.17542367       5.62287511      22.33225793       0.14177243      -0.03522823      -0.24153382
Pt       6.94429578       5.64813853      22.32821744      -0.02388298      -0.06533251      -0.07102956
Pt       9.69044943       5.59967959      22.24019047       0.91467619       0.27980983       0.88762975
Pt      12.52479316       5.59186514      22.32630489       0.14187169       0.27781031       0.18732725
Pt       5.64102446       8.07369183      22.27405485      -0.83758426      -0.43161216       0.32452416
Pt       8.42253500       8.00164177      22.35108674      -0.35302252       0.49107972      -1.17181385
Pt      11.20678776       8.04451928      22.22501697      -0.27936760      -0.41004753       0.74009210
Pt      13.92584977       8.04653084      22.32634232       0.56853473       0.04480302      -0.65316772
Pt      11.17439204       1.60952311      24.51892073      -0.03850073      -0.22007307       0.23651862
Pt       2.78044948       1.50943460      24.51203206       0.09875891       1.05113411      -0.21624136
Pt       5.59439849       1.60147083      24.54781784       0.02587353       0.44836599       0.16981572
Pt       8.41118069       1.67749303      24.51563701      -0.24846037      -0.39786950       0.43252233
Pt      12.54708198       4.00750217      24.56541778       0.45773432      -0.25904021      -0.54432803
Pt       4.17138500       4.00389040      24.53849470       0.11698829       0.08313303      -0.44704187
Pt       7.05449495       4.05881574      24.51637044      -0.57194835       0.05456010       0.62272537
Pt       9.81277353       4.02908458      24.55790080      -0.28583086       0.48930180      -0.02984974
Pt      13.97286065       6.50831762      24.52231758      -0.09121195      -0.66188687       0.47186971
Pt       5.55423200       6.46444695      24.57146536       0.25759575      -0.16890426       0.22920872
Pt       8.41913856       6.48588067      24.57129774      -0.08492792      -0.71921885       0.59019703
Pt      11.23528645       6.47207356      24.60750252      -0.74198472       0.00553481      -0.84671909
Pt      15.35957463       8.82795288      24.55592248       0.30561754       0.68057156       0.15321411
Pt       7.04516314       8.89213946      24.51484064      -0.87613124      -0.51050878       0.73206383
Pt       9.80703265       8.85711939      24.46455150       0.25857508      -0.02677110       1.27295482
Pt      12.53595352       8.92387490      24.49495600       0.39810219      -0.31594926       0.73735720
Pt       0.03060491       0.03571763      26.90381020      -0.45233318      -0.12352635      -0.16762103
Pt       2.84138524       0.02160818      26.85262989      -0.29591420      -0.38186646       1.12867987
Pt       5.61592987       0.01092951      26.86398207      -0.15070882       0.45998403       0.25045812
Pt      13.96219636       9.67319434      26.82468894       0.31732017       0.61275232       0.09044036
Pt       1.40492760       2.39010443      26.87479706      -0.09158348       0.19601089      -0.40571496
Pt       4.14265509       2.41591850      26.74037716       0.36442998      -0.09086280       0.70914632
Pt       6.98529403       2.50726902      26.91449299       0.08378378      -0.36761558       0.23866729
Pt       9.78766956       2.45988956      26.84587573       0.17599048      -0.40484107       1.15405726
Pt      13.95691727       4.86790139      26.77659750       0.09789399      -0.02352251       0.14023672
Pt       5.51593455       4.81297176      26.86666828       0.66613638       0.44429952      -0.19601630
Pt       8.41907799       4.84580272      26.98430294      -0.20749652       0.13280855      -0.45229900
Pt      11.26662718       4.88528574      26.81285688      -0.88059801      -0.14196810       0.61218637
Pt      15.32751056       7.25116340      26.95583120       0.08711978       0.26174194      -0.11665764
Pt       6.90370520       7.27037305      26.83154261       0.72336322       0.17440309       1.13142967
Pt       9.75009633       7.31466748      26.92884634      -0.41449913      -0.54000139       1.03752863
Pt      12.55188412       7.33027601      26.81574322       0.17324634      -0.34574372      -0.89454418
H       11.13953754       0.07748984      28.44370269       0.03709254      -0.03100288       0.23380251
H        8.32557358       9.66459797      28.44440498       0.17472164       0.08207090      -0.58033276
H        5.77731984       0.14507569      28.40278579      -0.14992464      -0.06557085       0.11825585
H        8.42414872       0.08027017      28.36343009      -0.04753456      -0.00335169       0.27675718
H        1.61292999       2.37529725      28.37705187      -0.05450225       0.03952300       0.81662667
H        4.16753253       2.58170491      28.27860015       0.00633186      -0.09263223       0.31996456
H        6.99682326       2.59266816      28.48463546      -0.03416662      -0.10193962      -0.29206654
H        9.84645224       2.34511066      28.44393439      -0.03648679       0.13004100      -0.67431122
H        2.97166153       5.02407398      28.28197778      -0.10535508      -0.04387794       0.73366123
H        5.57924642       4.84407412      28.39500653      -0.02208346       0.00930199       0.54182583
H        8.33645054       4.52142939      28.48330090       0.06495147       0.18736351       0.36246851
H       11.30930598       5.00146239      28.34864250       0.00445161      -0.04473643       0.43224129
H       14.92109681       7.35789668      28.44175183       0.26936319      -0.04768908       0.28277740
H        7.09233853       7.57946067      28.39692925      -0.29412317      -0.36162955      -0.61353034
H        9.39250380       7.15358876      28.50532819       0.45055759       0.18197781      -0.93043345
H       12.54965683       7.67549320      28.25011107      -0.02938206       0.14470452       1.88722718
H        0.15084373       0.14266208      18.56654973       0.00780998      -0.05472362      -1.20335507
H        2.85269743       0.19796338      18.43344264      -0.05484935      -0.19493231      -0.02350477
H        5.58515305       0.11221031      18.37932253       0.09184033       0.01391147       1.06806099
H       13.94584652       9.54033869      18.40229091       0.02485357       0.01495919      -0.52457887
H        1.75396225       2.57271576      18.41602258      -0.27838492      -0.13972405      -0.06985199
H        4.06154920       2.54465035      18.45638491       0.26747009      -0.14285128       0.69980806
H        7.25507375       2.50111580      18.43284656      -0.27732924      -0.07737144       0.55773890
H        9.91675586       2.29592097      18.40419057      -0.05214172       0.05132720      -0.16347718
H        2.78645603       4.71270683      18.51259038       0.00195507       0.15161668       0.32505611
H        5.65588072       5.04720067      18.43128788      -0.08362874      -0.15393427       0.09905510
H        8.35413684       4.78069956      18.48059426       0.05566567      -0.00992009      -1.22443449
H       11.38935803       4.75485940      18.47789367      -0.09203522       0.04458396      -0.26642543
H       14.85137980       6.90903548      18.57404836       0.31655732       0.22152190      -0.04699026
H        7.18455253       7.01521236      18.56574282       0.02507906       0.04941738      -1.35738134
H        9.88320839       7.30655465      18.50458914      -0.07668418       0.00172598       0.06245184
H       12.42469375       7.22956540      18.40658966       0.10690262       0.02235240       0.40772790
H        8.52915558       7.38966084      13.18191374       0.09778164       0.32050911      -0.17299746
H        8.73181816       8.02948606      12.82778752      -0.09841567      -0.31509027       0.17721793
H        1.30220478       0.93977357      32.61446691      -0.74550247       0.36074406      -0.18288979
H        1.94467846       0.63454365      32.76989463       0.71107155      -0.34245554       0.17232512
H        5.77630269       7.44572968      16.05219059      -0.43383977       0.39674798      -0.62804395
H        5.39653156       7.79891514      15.47659957       0.43712485      -0.41169021       0.65480191
H        2.21957137       2.68005901      36.55633879      -0.01816356      -0.07897504      -0.07109821
H        2.08617451       2.12494229      36.06827147       0.01846541       0.07561178       0.06201296
H       10.12864635       8.51541135       9.52793355       0.39884216      -0.18801399      -0.38807154
H       10.64244199       8.27121616       9.01677412      -0.39630654       0.19189379       0.39946643
H        8.26952233       1.95264825      34.03131045      -1.40080166      -1.15898836       0.16628920
H        7.64976685       1.44165784      34.10771129       1.40537333       1.15265858      -0.17663044
H       15.36740653       7.57660285       3.37984315      -0.32218215       0.81462502      -0.13621423
H        4.39754801       6.89150331       3.49581542       0.19297133      -0.91293555       0.16095750
H        8.54061319       3.13682072      39.65296412       1.26543951       0.13746096      -0.01493503
H        9.32172990       3.22238951      39.64823887      -1.24930859      -0.13935329       0.00986789
H        4.70434137       1.89265077      15.13729016       1.27006721      -0.82772458       0.00000077
H        5.37217468       1.45875709      15.12772152      -1.26952517       0.82492054       0.03026240
H        4.88511127       6.47999226      35.80687833       0.08293762      -0.55368787       0.00500414
H        4.77641825       7.20582131      35.79922286      -0.08436433       0.55440396      -0.00564177
H       13.72882068       9.28461868      15.26913063      -1.32504308       0.24973127       0.95646513
H       13.09315401       9.41781745      15.73562197       1.26477921      -0.28227964      -0.92245221
H        7.83762417       0.33586383      44.36134325       0.66559798      -0.43038958       0.56694138
H        7.34280368       0.65262962      43.93781278      -0.66794795       0.42682040      -0.57062685
H        6.88234574       1.35223406      10.48194845       0.49380791      -1.50847507       0.91105789
H        7.10098489       0.68759428      10.88359478      -0.50015903       1.50271690      -0.90935683
H       13.55793236       6.80132728      44.03993575       0.18475743      -0.17990679      -0.60931242
H       13.35440974       7.00309224      44.71292422      -0.18624996       0.18409409       0.60844749
H        6.19397162       9.05527509       3.14884946       0.33681634      -0.36965576      -0.03709793
H        6.59510339       8.41045587       3.10676777      -0.20631021       0.47136578       0.01824918
H        6.10104196       2.64629329      40.00186914      -0.24880259      -0.09525964      -0.17441645
H        5.53005203       2.42308512      39.55861689       0.23290238       0.08377786       0.17653915
H       12.35899690       3.05740826       3.38580680      -0.93555123      -0.11626915       0.97145259
H       12.85411565       3.11729332       2.87215336       0.93505067       0.10933360      -0.97076637
H        9.76156802       0.48568020      31.39055619       0.34600648      -0.07166051       0.42110738
H        9.29810676       0.58131253      30.82743519      -0.33945763       0.07662505      -0.41732788
H        4.07180966       5.18169044       7.29607056      -0.60738844       0.03018501       0.32226852
H        4.71536955       5.15044188       6.95114600       0.60717762      -0.02715265      -0.32808334
H        9.43790224       8.24832017      32.72582731       0.35154364       0.75474948      -0.02240665
H        9.75680787       8.95149866      32.71081560      -0.32673401      -0.76844829       0.00776962
H       12.91207295       5.40406805      14.55431331      -0.11216053       0.01129434       0.18387632
H       13.32596392       5.38460914      13.93706152       0.11654837      -0.00414513      -0.16049881
H        8.97962261       8.42238769      42.12961322       0.20944516      -0.42843813       0.05178973
H        9.30951145       7.74136246      42.21323372      -0.20515323       0.42902562      -0.05219726
H       10.62240514       1.17851075      14.78197799       0.11890685       0.18211202       0.01518751
H       10.23853056       0.54377821      14.73965455      -0.06766090      -0.13995801      -0.00972057
H       12.91483425       9.52126262      38.82318484      -0.04524628      -0.07153247      -0.00650901
H       12.56121183       8.86281451      38.75192756       0.04396561       0.08367965       0.00919581
144
Lattice="11.174675241468789 0.0 0.0 5.587337620734394 9.677552638152974 0.0 0.0 0.0 46.84306309572773" Properties=species:S:1:pos:R:3:forces:R:3 energy=38.63877344728385 pbc="T T T"
Pt       5.58942525       9.67455521      20.00812384      -0.04652386      -0.02535031      -0.20838742
Pt       2.79662965       0.00388361      20.00405333       0.01295862      -0.10473853      -1.01010501
Pt       5.58991376       0.01355377      20.00316170       0.06729914      -0.11786941      -1.61325145
Pt      13.96967981       9.67582773      19.98907752      -0.03431986       0.00206948       0.05166812
Pt       1.39767997       2.41930237      19.99497849      -0.08186110      -0.08302170      -0.69658571
Pt       4.18632573       2.41807891      20.00851775       0.00703120       0.03986239      -0.85609543
Pt       6.98518435       2.43017555      20.00510814       0.00666867      -0.14133766      -1.46099603
Pt       9.78099270       2.41082442      19.99905402      -0.01916835       0.08826958      -0.33622423
Pt      13.96293606       4.83405525      20.00885044       0.15566796       0.09890315      -0.76372772
Pt       5.59418977       4.84122839      19.99642008      -0.16968870      -0.03201821      -0.73456782
Pt       8.37774816       4.84546510      20.00445266       0.03441499      -0.07268329       0.54873514
Pt      11.18992609       4.83235100      20.00540906      -0.18351148       0.12648389      -0.69127047
Pt      15.36126736       7.25860649      20.00922632       0.11682142       0.05687461      -0.67688411
Pt       6.99043601       7.25188243      20.00917618      -0.02747738       0.03685008       0.33814278
Pt       9.78092848       7.25797115      20.00733597      -0.01840601       0.02046213      -1.08791327
Pt      12.56960838       7.25634540      19.99962564       0.02101286       0.02319829      -0.77815294
Pt       1.38714018       0.80940899      22.27313684       0.09309040      -0.03235734       0.35893092
Pt       4.19525261       0.80071514      22.27774954      -0.07181966       0.01111462       0.31799021
Pt       6.98036456       0.80500599      22.28486067       0.07320960      -0.00832549       0.17938177
Pt       9.77078299       0.80963195      22.28018897      -0.00328947      -0.06929149       0.28528681
Pt       2.78949840       3.21558527      22.27607196       0.00512344       0.03793303       0.31742200
Pt       5.59028906       3.22134725      22.27450163      -0.06339390       0.08155128       0.38694334
Pt       8.37242755       3.22474575      22.26979393       0.08455459       0.01889144       0.39305434
Pt      11.16509658       3.22666132      22.27342885       0.06724927      -0.00494269       0.38479930
Pt       4.18683237       5.64674596      22.27894922       0.07182866      -0.07507699       0.34532568
Pt       6.98177879       5.64372545      22.28462538      -0.02051586      -0.01819878       0.24048866
Pt       9.77473660       5.64448225      22.27514344       0.05631616      -0.00701860       0.45381415
Pt      12.57142832       5.63687971      22.28750778      -0.06394643       0.02519039       0.21419168
Pt       5.59455312       8.06456968      22.27854898      -0.06855950       0.01527570       0.44600469
Pt       8.38490178       8.05704531      22.28430551      -0.00883457       0.07175101       0.25155470
Pt      11.17642610       8.06240993      22.27366752       0.00833886      -0.01531709       0.31419140
Pt      13.96485595       8.05736131      22.28518491       0.02585424       0.10175373       0.18042898
Pt      11.17364459       1.61277112      24.55968595      -0.00726517      -0.03345186      -0.30570778
Pt       2.79309637       1.60441095      24.56213523      -0.01996462       0.08415093      -0.30367893
Pt       5.58643962       1.61599595      24.56727455       0.04001485      -0.01399246      -0.39534339
Pt       8.38127442       1.61816789      24.55757361       0.01208907      -0.03514107      -0.15914075
Pt      12.56937880       4.03137563      24.56316850       0.04936724      -0.02739125      -0.34589952
Pt       4.19145111       4.02668600      24.56003839      -0.00580298       0.05148274      -0.35031822
Pt       6.99253338       4.03283234      24.56300361      -0.04243992       0.00817302      -0.22719735
Pt       9.78130191       4.03195068      24.56135833      -0.04668764       0.03237636      -0.27223098
Pt      13.96858963       6.45677834      24.55500628       0.06176356      -0.07231279      -0.12988366
Pt       5.58703198       6.44961664      24.55961461      -0.02154250       0.00583666      -0.27836257
Pt       8.38470656       6.45915074      24.56734460       0.02754500      -0.08128800      -0.22095008
Pt      11.18164483       6.45303015      24.56966592      -0.12691788       0.00310692      -0.43761027
Pt      15.36682854       8.86070490      24.56197443       0.01607994       0.11048391      -0.29421985
Pt       6.99028179       8.87516612      24.56146843      -0.07692021      -0.04622124      -0.24009554
Pt       9.77906787       8.86842808      24.55593289       0.03319089       0.00490387      -0.19020689
Pt      12.56882271       8.87298400      24.56050121       0.01030318       0.04224966      -0.26546335
Pt       0.00766613       0.00237640      26.84422953      -0.08362565      -0.01678776      -0.06575057
Pt       2.79830348       0.00115604      26.83945850      -0.01912927      -0.00123207       1.48346567
Pt       5.58559618       0.00383604      26.84144017      -0.00599298       0.00315783       0.54401898
Pt      13.96823158       9.67665206      26.83752430      -0.05723919       0.00805038       0.13499758
Pt      12.56910300       2.41744181      26.84398844      -0.06700347      -0.00026148       0.31841651
Pt       4.18846841       2.41364755      26.83129502      -0.02407607       0.08059355       0.35637653
Pt       6.98263055       2.42693856      26.84858568       0.01697854      -0.09335420       0.85634738
Pt       9.78009950       2.42276216      26.84367921      -0.02567504      -0.00915930       1.22386706
Pt       2.79695906       4.84325973      26.83756712      -0.04381649      -0.09101731       0.21899785
Pt       5.57772490       4.83790387      26.84466670       0.09262966      -0.02506929      -0.05717954
Pt       8.38667827       4.84118620      26.85490638      -0.06912746       0.08766871       0.43089560
Pt      11.17972644       4.84365358      26.83792364      -0.08566402      -0.03019889      -0.17297767
Pt      15.36297040       7.26122836      26.85188712       0.07338546      -0.01920589       0.43684462
Pt       6.97288176       7.26178965      26.83859498       0.07428355      -0.12747197       1.60099161
Pt       9.76966744       7.26391548      26.85040026       0.22458151       0.10170668       2.09717751
Pt      12.56766773       7.26518310      26.83348612       0.05113025      -0.09678122       0.07462268
H       11.11776911       0.00578434      28.36361029       0.02897505      -0.00833757       0.74931622
H        2.81533555       0.01676533      28.45320787      -0.03940525      -0.01858291      -0.80372411
H        5.54453385       0.04958631      28.39236439       0.03655338      -0.04596104       0.14813438
H       13.87553263       9.58772840      28.36327681       0.00567340       0.01596192       0.43643039
H       12.39899042       2.41446963      28.37602621       0.10836250      -0.00037898       0.36309403
H        4.20700657       2.38685920      28.36853079      -0.03053185       0.01918866       0.43325919
H        6.91097517       2.35299511      28.41923428       0.08686113       0.07425038      -0.22264881
H        9.79941795       2.40709746      28.44202336      -0.05646452       0.01980778      -0.62083870
H        2.74292506       4.71222020      28.36681481       0.02887400       0.05505684       0.47174063
H        5.58385453       4.80593803      28.36578842      -0.00551167       0.00128349       0.73970693
H        8.35288981       4.97560824      28.39938457       0.02111647      -0.10000820       0.16995841
H       11.10965709       4.83053529      28.34911130       0.00720397      -0.00466835       0.93530852
H        4.31239494       7.22780886      28.39541686      -0.09977115       0.01113313       0.21161748
H        6.96882764       7.17477282      28.46392953       0.01307997       0.12832223      -0.97972745
H        9.89993173       7.34070228      28.52515320      -0.21112615      -0.11400941      -1.54284048
H       12.52898414       7.05958708      28.34399207       0.03887483       0.07076654       0.70614839
H        5.58732721       9.59252849      18.47862331      -0.00277679       0.05087468      -0.56572092
H        8.38392011       9.62031473      18.42309902      -0.00154703       0.06358236       0.34438157
H        5.61921737       0.05798473      18.37639397      -0.06944344      -0.18385832       1.21486568
H       13.96042283       9.62614012      18.46561450       0.06193788       0.02682561      -0.42935935
H       12.45469597       2.36049326      18.44114189       0.11109095       0.05189438      -0.04354292
H        4.25992587       2.38811641      18.43908034      -0.19494106       0.09157756       0.33559945
H        6.89695267       2.37545562      18.39558208       0.22577091       0.14701003       1.01472318
H        9.85726207       2.47809172      18.46290116      -0.06020213      -0.04471534      -0.41253868
H        2.89557326       4.95368231      18.45404245      -0.10189746      -0.09671822       0.01065954
H        5.46130470       4.78656094      18.43763997       0.12802990       0.05358642       0.07062204
H        8.43742483       4.82176946      18.51028670      -0.01825766      -0.00205560      -1.35152495
H       11.09531679       4.90476587      18.45140265       0.08969551      -0.05096441      -0.04784798
H        4.30390672       7.32707719      18.45610896      -0.09873654      -0.05588422      -0.05275030
H        6.93475514       7.34339193      18.50814041       0.01794964      -0.02639238      -1.13140225
H        9.74349533       7.23626994      18.42432774       0.03594377       0.02800137       0.36538309
H       12.59203658       7.26100939      18.43231021      -0.01607094      -0.00730168       0.12300364
H        8.96729332       7.42658581      13.59190727      -0.50335234       0.74909842      -0.89078909
H        8.65702489       7.89036859      13.03761337       0.49768463      -0.74893284       0.89786941
H        0.90053063       0.92901029      32.83679522      -0.13011479       0.06574877      -0.19064602
H       11.65125556       1.13718371      32.24707931       0.12964815      -0.07180372       0.17459901
H        5.23123910       7.45402201      14.87273656      -0.65450728       0.53321290       0.01544050
H        4.63771714       7.95030044      14.87514361       0.65673900      -0.56454927       0.01104469
H        2.37230097       2.18868679      36.39202082       0.11914107      -0.08142170       0.00820336
H        1.75772610       2.60579408      36.34269086      -0.12061097       0.07946663      -0.01446477
H       10.72670908       7.33081175       8.91014635      -0.37761718       0.35921040      -0.03882854
H       10.17366368       7.85236485       8.84920458       0.38042638      -0.35555044       0.04500074
H        7.80769712       0.99043822      33.83671324      -0.64484328       0.33464015       0.03173539
H        7.12606673       1.34503219      33.87816298       0.65053904      -0.34125277      -0.04504162
H        4.33599679       7.19741631       1.17989521       0.54619235      -0.07518087       0.36358872
H       14.78746244       7.27964210       1.27265498      -0.21223739       0.02765042       0.51954365
H        8.63515955       2.57688295      38.72111718      -0.28089663       0.19871698       0.02084882
H        7.97039696       2.93021373      38.79691806       0.34397402      -0.13498524      -0.04731422
H        5.95638160       1.58439655      16.82326133      -0.70299649       0.18919721      -0.09919702
H        5.25195182       1.71505776      17.09661672       0.60885012      -0.10613103      -0.57274693
H        4.72634550       6.57588523      34.97728255       0.20511414      -0.08919492      -0.07710096
H        4.08320836       6.85991026      35.21441809      -0.20678973       0.09233835       0.07640728
H       13.59267580       9.54949708      16.35542912      -0.58431381       0.06165069       0.12361865
H       12.90301496       9.65169381      16.67107806       0.60956800      -0.17264059      -0.41577235
H       13.72156052       9.57241994      44.86258660      -0.28761390       0.12345873       0.05518976
H        7.43881428       0.08729249      45.08530659       0.25226766      -0.04137857      -0.09996707
H        7.67826338       0.81453733      10.70290712      -0.15928319      -0.92221183       0.49535006
H        7.56097917       0.13584253      11.06721396       0.15605955       0.91790754      -0.49381047
H       14.46054743       7.71828001      46.01778173      -0.09213035       0.48815611      -0.63366950
H       14.39968297       7.07905288      46.36110059      -0.19823438      -0.51578391      -0.20081449
H        1.00603145       0.06692240       2.39939422       0.05352703      -0.55508220      -0.03684211
H        6.75705159       9.00427675       2.40731927      -0.09236560       0.32337615      -0.02669140
H        5.82952587       2.23832167      40.04600173       0.10174242      -1.03267443      -0.09589470
H        5.93399934       1.47279300      39.95620200      -0.17046466       1.02671611       0.13225396
H       12.31441533       2.48208162       3.21526876      -0.16976713       0.52838874       0.26482314
H        1.36637497       1.87010065       2.88120100       0.20002079      -0.30362135      -0.20566332
H        8.95835818       0.79642081      30.72567687      -0.02574806       0.06912258       0.11423670
H        9.23431738       0.22429034      30.33328630       0.05149534      -0.05476861       0.03979579
H        4.68271651       5.25324266       7.88900656       0.01262540      -0.01338902      -0.03300011
H        4.92386250       4.98859925       7.23115876      -0.01256344       0.01332191       0.03312044
H        9.38702556       8.82516906      32.66437555       0.49893084      -0.27405801      -1.30939639
H        9.66685686       8.66986335      31.93925315      -0.50406325       0.28224364       1.28355038
H        2.71782768       4.50639834      14.51765265       0.03292247       0.01387753       0.21196845
H        2.60814278       4.47118621      13.78325396      -0.02753060      -0.00766420      -0.19187245