4
Lattice="2.653985369848837 0.0 0.0 1.326992684924419 2.298418751561331 0.0 0.0 0.0 24.562042063818488" Properties=species:S:1:pos:R:3:forces:R:3 energy=2.9844781622787337 pbc="T T F"
Pt       1.32699268       0.76613958      10.00000000      -0.00363631       0.03826599      -1.25957012
Pt       2.65398537       1.53227917      12.28102103       0.05761714      -0.03603607      -0.35750523
Pt       1.35869419       2.17698600      14.52903073       0.40466672      -0.24669325       3.61377573
H        2.50273938       1.89933326      16.40187900      -0.45864755       0.24446359      -1.99670041
4
Lattice="2.653985369848837 0.0 0.0 1.326992684924419 2.298418751561331 0.0 0.0 0.0 24.562042063818488" Properties=species:S:1:pos:R:3:forces:R:3 energy=2.178282476318614 pbc="T T F"
Pt       1.32699268       0.76613958      10.00000000       0.01857853      -0.03462813      -1.40740478
Pt       2.65398537       1.53227917      12.28102103      -0.13900515       0.37254414      -0.32900816
Pt       2.55373587       0.18437658      14.58121172      -1.51204741       0.14392754      -1.47744417
H        2.05140340       2.21557677      15.72700456       1.63247406      -0.48184353       3.21385717
4
Lattice="2.653985369848837 0.0 0.0 1.326992684924419 2.298418751561331 0.0 0.0 0.0 24.562042063818488" Properties=species:S:1:pos:R:3:forces:R:3 energy=4.237068748302605 pbc="T T F"
Pt       1.32699268       0.76613958      10.00000000      -0.04221315       0.02332582      -1.47841501
Pt       2.65398537       1.53227917      12.28102103       0.26420248      -0.04578981      -1.65823007
Pt       1.47140566       2.29247734      14.48204206       1.08486271       3.44457364      -2.46186090
H        0.89268248       1.17717235      14.96591043      -1.30685198      -3.42210937       5.59850597
4
Lattice="2.653985369848837 0.0 0.0 1.326992684924419 2.298418751561331 0.0 0.0 0.0 24.562042063818488" Properties=species:S:1:pos:R:3:forces:R:3 energy=1.8404270611727185 pbc="T T F"
Pt       1.32699268       0.76613958      10.00000000      -0.00506327       0.00639202      -1.30913842
Pt       2.65398537       1.53227917      12.28102103       0.00865871      -0.03522952       0.32566237
Pt       0.02892805       0.00691011      14.61122270       0.15381908      -0.79100871       2.35737705
H        1.49377533       1.61087276      16.16525460      -0.15741453       0.81984591      -1.37390101
4
Lattice="2.653985369848837 0.0 0.0 1.326992684924419 2.298418751561331 0.0 0.0 0.0 24.562042063818488" Properties=species:S:1:pos:R:3:forces:R:3 energy=3.776377598162995 pbc="T T F"
Pt       1.32699268       0.76613958      10.00000000       0.00187305      -0.02851019      -1.44549799
Pt       2.65398537       1.53227917      12.28102103      -0.06133650       0.15866794      -0.12265963
Pt       2.56941551       0.13527981      14.62889332      -5.98736811       1.83988976      -4.16090250
H        2.42215462       2.19152173      15.16204206       6.04683161      -1.97004759       5.72906017
4
Lattice="2.653985369848837 0.0 0.0 1.326992684924419 2.298418751561331 0.0 0.0 0.0 24.562042063818488" Properties=species:S:1:pos:R:3:forces:R:3 energy=2.303094642325064 pbc="T T F"
Pt       1.32699268       0.76613958      10.00000000      -0.01915112       0.01035975      -1.32499087
Pt       2.65398537       1.53227917      12.28102103       0.11383046      -0.19710849      -0.08725194
Pt       1.46317266       2.23731606      14.56748934       0.00708570       0.44492328       3.23775315
H        2.32003829       1.12888447      16.11060486      -0.10176504      -0.25817451      -1.82551038
4
Lattice="2.653985369848837 0.0 0.0 1.326992684924419 2.298418751561331 0.0 0.0 0.0 24.562042063818488" Properties=species:S:1:pos:R:3:forces:R:3 energy=1.903809046528309 pbc="T T F"
Pt       1.32699268       0.76613958      10.00000000      -0.01379988       0.00100607      -1.35946631
Pt       2.65398537       1.53227917      12.28102103       0.18450032      -0.00098962      -0.26443362
Pt       1.37433891       2.26843173      14.56405615      -0.34722647      -0.09830280       1.60057640
H        3.20647815       1.73028277      15.84944075       0.17652604       0.09828634       0.02332351
4
Lattice="2.653985369848837 0.0 0.0 1.326992684924419 2.298418751561331 0.0 0.0 0.0 24.562042063818488" Properties=species:S:1:pos:R:3:forces:R:3 energy=3.483131577230793 pbc="T T F"
Pt       1.32699268       0.76613958      10.00000000       0.03334644       0.03026034      -1.45911121
Pt       2.65398537       1.53227917      12.28102103      -0.16402689      -0.13050613      -0.06437220
Pt       3.85491596       2.15513446      14.63344640       0.65284324       1.33846164      -3.41162109
H        1.73254519       0.95228030      15.16204206      -0.52216280      -1.23821592       4.93510437
4
Lattice="2.653985369848837 0.0 0.0 1.326992684924419 2.298418751561331 0.0 0.0 0.0 24.562042063818488" Properties=species:S:1:pos:R:3:forces:R:3 energy=3.585194480106125 pbc="T T F"
Pt       1.32699268       0.76613958      10.00000000      -0.01505330       0.02368655      -1.43414962
Pt       2.65398537       1.53227917      12.28102103       0.05450842       0.08762141       0.75565886
Pt       0.11132825       0.08207333      14.75645392       2.71495008       6.89628744      -6.09073210
H        0.98860625       1.34931429      15.39314941      -2.75440526      -7.00759554       6.76922321
4
Lattice="2.653985369848837 0.0 0.0 1.326992684924419 2.298418751561331 0.0 0.0 0.0 24.562042063818488" Properties=species:S:1:pos:R:3:forces:R:3 energy=1.746291719479828 pbc="T T F"
Pt       1.32699268       0.76613958      10.00000000       0.02232438       0.02078171      -1.35814631
Pt       2.65398537       1.53227917      12.28102103      -0.12990911      -0.11431203       0.71335882
Pt       3.91737575       2.20608693      14.69633844       0.07934631       0.06756217       0.91839272
H        1.66928246       1.03148762      15.88513193       0.02823843       0.02596840      -0.27360526
4
Lattice="2.653985369848837 0.0 0.0 1.326992684924419 2.298418751561331 0.0 0.0 0.0 24.562042063818488" Properties=species:S:1:pos:R:3:forces:R:3 energy=4.679606638453166 pbc="T T F"
Pt       1.32699268       0.76613958      10.00000000      -0.04782998      -0.03747049      -1.46946299
Pt       2.65398537       1.53227917      12.28102103       0.00979770       0.08351252       0.15759887
Pt       0.09621603       0.11216155      14.64798867     -11.22555065      -6.07584429     -12.29858303
H        0.86232461       0.52086784      15.45275792      11.26358318       6.02980232      13.61044788
4
Lattice="2.653985369848837 0.0 0.0 1.326992684924419 2.298418751561331 0.0 0.0 0.0 24.562042063818488" Properties=species:S:1:pos:R:3:forces:R:3 energy=3.0649395782975404 pbc="T T F"
Pt       1.32699268       0.76613958      10.00000000       0.03442322       0.02581465      -1.44114792
Pt       2.65398537       1.53227917      12.28102103      -0.26716566      -0.29548278      -1.23146415
Pt       3.88326683       2.14733904      14.50765623       1.30964983      -4.56736135      -2.90690565
H        2.31381199       0.86791034      15.36204206      -1.07690716       4.83702946       5.57951784
4
Lattice="2.653985369848837 0.0 0.0 1.326992684924419 2.298418751561331 0.0 0.0 0.0 24.562042063818488" Properties=species:S:1:pos:R:3:forces:R:3 energy=3.615415785813653 pbc="T T F"
Pt       1.32699268       0.76613958      10.00000000      -0.02048501      -0.05794496      -1.21743727
Pt       2.65398537       1.53227917      12.28102103       0.07180372       0.34223521      -0.99129069
Pt       2.72567511       0.14386954      14.48204206       0.20127985      -0.20925105       3.78868580
H        1.26874554       0.27356966      16.63241001      -0.25259855      -0.07503919      -1.57995796
4
Lattice="2.653985369848837 0.0 0.0 1.326992684924419 2.298418751561331 0.0 0.0 0.0 24.562042063818488" Properties=species:S:1:pos:R:3:forces:R:3 energy=2.499901945747311 pbc="T T F"
Pt       1.32699268       0.76613958      10.00000000       0.01582848      -0.02538039      -1.28806520
Pt       2.65398537       1.53227917      12.28102103      -0.00199029       0.23769490      -0.91941267
Pt       2.60459247       0.13635620      14.48204206      -0.27309901      -1.15878630       4.36631536
H        1.06825283       1.68277140      16.23994010       0.25926080       0.94647199      -2.15883756
4
Lattice="2.653985369848837 0.0 0.0 1.326992684924419 2.298418751561331 0.0 0.0 0.0 24.562042063818488" Properties=species:S:1:pos:R:3:forces:R:3 energy=2.332157491290687 pbc="T T F"
Pt       1.32699268       0.76613958      10.00000000      -0.00378132       0.00598939      -1.31738865
Pt       2.65398537       1.53227917      12.28102103       0.08446717      -0.09333568      -0.98342443
Pt       3.95645467       2.29437996      14.48204206      -0.18546423       0.24878150       3.92091155
H        3.16296869       1.18461880      15.96029385       0.10477863      -0.16143522      -1.62009847
4
Lattice="2.653985369848837 0.0 0.0 1.326992684924419 2.298418751561331 0.0 0.0 0.0 24.562042063818488" Properties=species:S:1:pos:R:3:forces:R:3 energy=2.6604054503232106 pbc="T T F"
Pt       1.32699268       0.76613958      10.00000000       0.00323573       0.03089541      -1.28412366
Pt       2.65398537       1.53227917      12.28102103      -0.03999660      -0.26745003      -0.73077315
Pt       1.36000810       2.16720327      14.50058955       0.19574556      -0.09686915       4.03353262
H        1.92900157       1.09866215      16.18281074      -0.15898494       0.33342376      -2.01863575
4
Lattice="2.653985369848837 0.0 0.0 1.326992684924419 2.298418751561331 0.0 0.0 0.0 24.562042063818488" Properties=species:S:1:pos:R:3:forces:R:3 energy=2.5315398762222827 pbc="T T F"
Pt       1.32699268       0.76613958      10.00000000       0.01210887      -0.02059557      -1.29535580
Pt       2.65398537       1.53227917      12.28102103       0.05052732       0.08975928       0.43919587
Pt       2.59745841       0.11618811      14.62287140      -0.21362758       0.22544102       2.88313222
H        2.96885381       1.36504461      16.30461401       0.15099140      -0.29460475      -2.02697206
4
Lattice="2.653985369848837 0.0 0.0 1.326992684924419 2.298418751561331 0.0 0.0 0.0 24.562042063818488" Properties=species:S:1:pos:R:3:forces:R:3 energy=3.8654124376180476 pbc="T T F"
Pt       1.32699268       0.76613958      10.00000000       0.01479104       0.01805480      -1.26439977
Pt       2.65398537       1.53227917      12.28102103      -0.04740755      -0.04369179       0.39543363
Pt       3.93964263       2.26265577      14.61020121       0.02617512       0.19829763       1.73196256
H        2.43347437       1.13605684      17.12827576       0.00644164      -0.17266065      -0.86299652
4
Lattice="2.653985369848837 0.0 0.0 1.326992684924419 2.298418751561331 0.0 0.0 0.0 24.562042063818488" Properties=species:S:1:pos:R:3:forces:R:3 energy=3.4413184250652336 pbc="T T F"
Pt       1.32699268       0.76613958      10.00000000      -0.05605879      -0.05929299      -1.24149632
Pt       2.65398537       1.53227917      12.28102103       0.01544899       0.31925622      -0.72316217
Pt       0.10985322       0.17915211      14.50106276      -0.36782977       0.19721031       3.82185888
H        2.24898970       0.79053954      16.69910972       0.40843958      -0.45717379      -1.85720050
4
Lattice="2.653985369848837 0.0 0.0 1.326992684924419 2.298418751561331 0.0 0.0 0.0 24.562042063818488" Properties=species:S:1:pos:R:3:forces:R:3 energy=2.183974009864883 pbc="T T F"
Pt       1.32699268       0.76613958      10.00000000       0.01067651       0.00481413      -1.34723711
Pt       2.65398537       1.53227917      12.28102103      -0.10814549      -0.15739883      -1.07291317
Pt       3.88526221       2.28810631      14.48204206       0.05116830       0.62470770       3.55735564
H        2.88042304       1.10824945      15.86204206       0.04630069      -0.47212297      -1.13720548
4
Lattice="2.653985369848837 0.0 0.0 1.326992684924419 2.298418751561331 0.0 0.0 0.0 24.562042063818488" Properties=species:S:1:pos:R:3:forces:R:3 energy=4.041371261268992 pbc="T T F"
Pt       1.32699268       0.76613958      10.00000000      -0.04456056      -0.01843481      -1.32319081
Pt       2.65398537       1.53227917      12.28102103       0.08437075       0.02670014       0.87703419
Pt       0.18770744       0.08043662      14.68142774      -0.01451671       0.00671135       0.85052127
H        2.56373299       1.45247044      17.53130546      -0.02529349      -0.01497668      -0.40436462
4
Lattice="2.653985369848837 0.0 0.0 1.326992684924419 2.298418751561331 0.0 0.0 0.0 24.562042063818488" Properties=species:S:1:pos:R:3:forces:R:3 energy=2.0708641005139867 pbc="T T F"
Pt       1.32699268       0.76613958      10.00000000       0.01303781      -0.01967845      -1.39039385
Pt       2.65398537       1.53227917      12.28102103       0.17748404      -0.11118840       0.21314447
Pt       0.13692661       0.00791638      14.63333974       0.50956005      -1.31929231      -2.86790419
H        2.50119048       0.62701895      15.86204206      -0.70008188       1.45015907       4.04515314
4
Lattice="2.653985369848837 0.0 0.0 1.326992684924419 2.298418751561331 0.0 0.0 0.0 24.562042063818488" Properties=species:S:1:pos:R:3:forces:R:3 energy=1.780093839531233 pbc="T T F"
Pt       1.32699268       0.76613958      10.00000000      -0.02244830      -0.00127938      -1.36179256
Pt       2.65398537       1.53227917      12.28102103       0.16313188       0.00097625       0.63201553
Pt       0.12786040       0.01774045      14.69580360      -0.20238748       0.01363533       1.11472762
H        3.06343474       1.57060645      15.86204206       0.06170391      -0.01333220      -0.38495049
4
Lattice="2.653985369848837 0.0 0.0 1.326992684924419 2.298418751561331 0.0 0.0 0.0 24.562042063818488" Properties=species:S:1:pos:R:3:forces:R:3 energy=2.1397270032894227 pbc="T T F"
Pt       1.32699268       0.76613958      10.00000000      -0.04820047       0.01234207      -1.36353922
Pt       2.65398537       1.53227917      12.28102103       0.61169070      -0.28317490      -1.29744196
Pt       1.50951309       2.17014324      14.48204206      -0.99698287      -0.06311236       3.22450280
H        3.47283039       1.52934073      15.86204206       0.43349293       0.33394518      -0.56352156
4
Lattice="2.653985369848837 0.0 0.0 1.326992684924419 2.298418751561331 0.0 0.0 0.0 24.562042063818488" Properties=species:S:1:pos:R:3:forces:R:3 energy=4.452861435908758 pbc="T T F"
Pt       1.32699268       0.76613958      10.00000000      -0.04919961      -0.04659816      -1.35620129
Pt       2.65398537       1.53227917      12.28102103       0.16402456       0.20077181      -0.95037574
Pt       0.13823535       0.12269503      14.48204206      -0.11491007      -0.16340314       2.36957264
H        1.49067928       1.45682336      18.13274963       0.00008510       0.00922949      -0.06299563
4
Lattice="2.653985369848837 0.0 0.0 1.326992684924419 2.298418751561331 0.0 0.0 0.0 24.562042063818488" Properties=species:S:1:pos:R:3:forces:R:3 energy=4.414886449777455 pbc="T T F"
Pt       1.32699268       0.76613958      10.00000000       0.03637186      -0.00871681      -1.33978403
Pt       2.65398537       1.53227917      12.28102103      -0.14830613       0.02006618      -0.88646501
Pt       2.56400568       0.02064686      14.48204206       0.10948247      -0.02753755       2.36000252
H        1.16685279       1.89338922      17.97278139       0.00245206       0.01618818      -0.13375342
4
Lattice="2.653985369848837 0.0 0.0 1.326992684924419 2.298418751561331 0.0 0.0 0.0 24.562042063818488" Properties=species:S:1:pos:R:3:forces:R:3 energy=4.105986466652226 pbc="T T F"
Pt       1.32699268       0.76613958      10.00000000       0.01381840       0.02081514      -1.28489757
Pt       2.65398537       1.53227917      12.28102103      -0.04418030      -0.06477407      -0.49693128
Pt       3.95315554       2.25195985      14.51712788       0.14409208       0.11540680       2.47314906
H        0.38756520       0.21374495      17.36204206      -0.11373018      -0.07144788      -0.69132036
4
Lattice="2.653985369848837 0.0 0.0 1.326992684924419 2.298418751561331 0.0 0.0 0.0 24.562042063818488" Properties=species:S:1:pos:R:3:forces:R:3 energy=4.461255808425463 pbc="T T F"
Pt       1.32699268       0.76613958      10.00000000       0.07231665       0.00575644      -1.35727704
Pt       2.65398537       1.53227917      12.28102103      -0.32069013      -0.07922598      -0.97430831
Pt       3.79266907       2.29554476      14.48204206       0.25001127       0.08056424       2.38622451
H        2.71894713       0.87532620      18.20636794      -0.00163754      -0.00709470      -0.05463929
4
Lattice="2.653985369848837 0.0 0.0 1.326992684924419 2.298418751561331 0.0 0.0 0.0 24.562042063818488" Properties=species:S:1:pos:R:3:forces:R:3 energy=4.416761722460265 pbc="T T F"
Pt       1.32699268       0.76613958      10.00000000      -0.02866935       0.05583742      -1.36979342
Pt       2.65398537       1.53227917      12.28102103       0.15265644      -0.20752636      -0.57768220
Pt       1.40163583       2.12908891      14.51404820      -0.12449103       0.15066743       1.97874510
H        1.13055466       1.57843191      18.95314334       0.00050394       0.00102176      -0.03126924
4
Lattice="2.653985369848837 0.0 0.0 1.326992684924419 2.298418751561331 0.0 0.0 0.0 24.562042063818488" Properties=species:S:1:pos:R:3:forces:R:3 energy=4.3303197199447965 pbc="T T F"
Pt       1.32699268       0.76613958      10.00000000       0.02616201       0.00997151      -1.35084593
Pt       2.65398537       1.53227917      12.28102103      -0.10415822      -0.04282070      -0.31246388
Pt       3.90798426       2.27312086      14.53256577       0.07794172       0.04223680       1.74654210
H        2.64747929       1.13127284      18.04261361       0.00005425      -0.00938761      -0.08323228
4
Lattice="2.653985369848837 0.0 0.0 1.326992684924419 2.298418751561331 0.0 0.0 0.0 24.562042063818488" Properties=species:S:1:pos:R:3:forces:R:3 energy=4.483314174457533 pbc="T T F"
Pt       1.32699268       0.76613958      10.00000000      -0.04987118       0.01645043      -1.36467636
Pt       2.65398537       1.53227917      12.28102103       0.23066217      -0.09304000      -0.81379795
Pt       1.45218468       2.26051010      14.48988186      -0.18089795       0.07653429       2.20011044
H        3.30047250       1.12516477      19.85327315       0.00010696       0.00005528      -0.02163583
4
Lattice="2.653985369848837 0.0 0.0 1.326992684924419 2.298418751561331 0.0 0.0 0.0 24.562042063818488" Properties=species:S:1:pos:R:3:forces:R:3 energy=4.3527844880309345 pbc="T T F"
Pt       1.32699268       0.76613958      10.00000000      -0.02055031      -0.01499493      -1.36787844
Pt       2.65398537       1.53227917      12.28102103       0.07176387       0.05510569      -0.13178396
Pt       0.06256351       0.04535914      14.54946264      -0.05120995      -0.04032236       1.52716398
H        1.19395273       0.91359357      19.36204206      -0.00000360       0.00021134      -0.02750155
4
Lattice="2.653985369848837 0.0 0.0 1.326992684924419 2.298418751561331 0.0 0.0 0.0 24.562042063818488" Properties=species:S:1:pos:R:3:forces:R:3 energy=4.523221305070379 pbc="T T F"
Pt       1.32699268       0.76613958      10.00000000      -0.06821677      -0.00730270      -1.36815250
Pt       2.65398537       1.53227917      12.28102103       0.29317930      -0.01526361      -0.95138872
Pt       0.18421585       0.03094282      14.48204206      -0.22514510       0.02258740       2.32680321
H        3.66483038       2.22550803      20.86275198       0.00018255      -0.00002083      -0.00726208
4
Lattice="2.653985369848837 0.0 0.0 1.326992684924419 2.298418751561331 0.0 0.0 0.0 24.562042063818488" Properties=species:S:1:pos:R:3:forces:R:3 energy=4.500095980584788 pbc="T T F"
Pt       1.32699268       0.76613958      10.00000000       0.01823864      -0.01779126      -1.36000514
Pt       2.65398537       1.53227917      12.28102103      -0.07288770       0.07882180      -0.85699475
Pt       2.60872206       0.04393863      14.48204206       0.05470202      -0.06126014       2.22999525
H        1.17369030       1.55012445      20.37774514      -0.00005296       0.00022986      -0.01299538
4
Lattice="2.653985369848837 0.0 0.0 1.326992684924419 2.298418751561331 0.0 0.0 0.0 24.562042063818488" Properties=species:S:1:pos:R:3:forces:R:3 energy=4.481302096529376 pbc="T T F"
Pt       1.32699268       0.76613958      10.00000000       0.00665042       0.03093732      -1.35935342
Pt       2.65398537       1.53227917      12.28102103      -0.03443479      -0.12486975      -0.86238045
Pt       1.31065471       2.22156878      14.48204206       0.02749718       0.09394991       2.24651599
H        2.95452020       2.27678374      19.36204206       0.00028745      -0.00001748      -0.02478184
4
Lattice="2.653985369848837 0.0 0.0 1.326992684924419 2.298418751561331 0.0 0.0 0.0 24.562042063818488" Properties=species:S:1:pos:R:3:forces:R:3 energy=4.290399459837332 pbc="T T F"
Pt       1.32699268       0.76613958      10.00000000       0.00778736      -0.00796939      -1.36791086
Pt       2.65398537       1.53227917      12.28102103      -0.02385855       0.02612755       0.39365727
Pt       2.62647760       0.02803186      14.60781115       0.01609896      -0.01816845       0.99524611
H        1.48066476       1.94031547      19.96369542      -0.00002751       0.00001003      -0.02099255
4
Lattice="2.653985369848837 0.0 0.0 1.326992684924419 2.298418751561331 0.0 0.0 0.0 24.562042063818488" Properties=species:S:1:pos:R:3:forces:R:3 energy=1.953806091131824 pbc="T T F"
Pt       1.32699268       0.76613958      10.00000000       0.01756244       0.04414662      -1.31840599
Pt       2.65398537       1.53227917      12.28102103       0.01306429      -0.24521564      -1.06723857
Pt       1.32115379       2.10158743      14.48204206      -0.59466100       0.03594403       3.45443678
H        3.49958840       1.98239284      16.07078646       0.56403428       0.16512500      -1.06879222
4
Lattice="2.653985369848837 0.0 0.0 1.326992684924419 2.298418751561331 0.0 0.0 0.0 24.562042063818488" Properties=species:S:1:pos:R:3:forces:R:3 energy=2.0985874689931876 pbc="T T F"
Pt       1.32699268       0.76613958      10.00000000       0.04317423       0.01141493      -1.42012274
Pt       2.65398537       1.53227917      12.28102103      -0.10339127       0.27723694      -1.22123349
Pt       2.46867464       0.13284105      14.48204206       0.27844432       0.07807387       1.45009124
H        3.23364474       1.72396149      15.72889980      -0.21822728      -0.36672574       1.19126499
4
Lattice="2.653985369848837 0.0 0.0 1.326992684924419 2.298418751561331 0.0 0.0 0.0 24.562042063818488" Properties=species:S:1:pos:R:3:forces:R:3 energy=2.7399331076239974 pbc="T T F"
Pt       1.32699268       0.76613958      10.00000000       0.04671438       0.01449922      -1.24375296
Pt       2.65398537       1.53227917      12.28102103      -0.38486871      -0.14499481      -0.99882251
Pt       3.79705575       2.26204926      14.48204206      -0.14936182       0.54520786       4.74071550
H        2.15583440       0.22904071      16.46179956       0.48751616      -0.41471228      -2.49814010
4
Lattice="2.653985369848837 0.0 0.0 1.326992684924419 2.298418751561331 0.0 0.0 0.0 24.562042063818488" Properties=species:S:1:pos:R:3:forces:R:3 energy=1.8673145638922648 pbc="T T F"
Pt       1.32699268       0.76613958      10.00000000      -0.00686382       0.01083951      -1.38338554
Pt       2.65398537       1.53227917      12.28102103      -0.00054456      -0.05083277      -0.05189027
Pt       1.36058362       2.22195976      14.60243504      -0.24224190       0.16179028       1.00732100
H        2.49153953       1.62587359      15.66192331       0.24965002      -0.12179703       0.42795476
4
Lattice="2.653985369848837 0.0 0.0 1.326992684924419 2.298418751561331 0.0 0.0 0.0 24.562042063818488" Properties=species:S:1:pos:R:3:forces:R:3 energy=2.345040245910255 pbc="T T F"
Pt       1.32699268       0.76613958      10.00000000       0.00229342      -0.04564762      -1.33133817
Pt       2.65398537       1.53227917      12.28102103      -0.00156323       0.40245327      -1.18339431
Pt       2.63932920       0.14479413      14.48204206      -0.10541292      -0.58661085       3.93154311
H        2.68497788       1.89888891      15.87492479       0.10468299       0.22980547      -1.41681039
4
Lattice="2.653985369848837 0.0 0.0 1.326992684924419 2.298418751561331 0.0 0.0 0.0 24.562042063818488" Properties=species:S:1:pos:R:3:forces:R:3 energy=4.289023039892541 pbc="T T F"
Pt       1.32699268       0.76613958      10.00000000       0.05917137      -0.05574743      -1.49536884
Pt       2.65398537       1.53227917      12.28102103      -0.15007274       0.26778993      -1.50419915
Pt       2.50372859       0.16605009      14.48204206       7.41535616      -6.85740757      -7.88396978
H        1.83941809       0.77673769      15.31634237      -7.32445526       6.64536476      10.88353825
4
Lattice="2.653985369848837 0.0 0.0 1.326992684924419 2.298418751561331 0.0 0.0 0.0 24.562042063818488" Properties=species:S:1:pos:R:3:forces:R:3 energy=4.2870481735344725 pbc="T T F"
Pt       1.32699268       0.76613958      10.00000000       0.02762959       0.04375864      -1.51121795
Pt       2.65398537       1.53227917      12.28102103      -0.20293282       0.15278448      -1.62283885
Pt       2.51308866       0.05746228      14.48204206       0.78322315       8.63821030      -2.53199220
H        1.02387037       1.17103577      14.96204206      -0.60791993      -8.83475399       5.66604853
4
Lattice="2.653985369848837 0.0 0.0 1.326992684924419 2.298418751561331 0.0 0.0 0.0 24.562042063818488" Properties=species:S:1:pos:R:3:forces:R:3 energy=3.032322514117382 pbc="T T F"
Pt       1.32699268       0.76613958      10.00000000      -0.00901172      -0.03719255      -1.43984902
Pt       2.65398537       1.53227917      12.28102103       0.06240094       0.13628004      -1.20057213
Pt       2.70175722       0.11465223      14.51521584      -0.06912797      -4.22855043      -1.39556944
H        2.73948268       1.36163390      15.16204206       0.01573875       4.12946320       4.03599072
4
Lattice="2.653985369848837 0.0 0.0 1.326992684924419 2.298418751561331 0.0 0.0 0.0 24.562042063818488" Properties=species:S:1:pos:R:3:forces:R:3 energy=2.4042355554056627 pbc="T T F"
Pt       1.32699268       0.76613958      10.00000000       0.00959407      -0.01679676      -1.30812311
Pt       2.65398537       1.53227917      12.28102103      -0.05652879       0.11507025      -0.66278493
Pt       2.62531256       0.05793897      14.51744086       0.13962454      -0.15581323       3.65500665
H        2.57267671       1.63087647      15.99249579      -0.09268982       0.05754001      -1.68409872
4
Lattice="2.653985369848837 0.0 0.0 1.326992684924419 2.298418751561331 0.0 0.0 0.0 24.562042063818488" Properties=species:S:1:pos:R:3:forces:R:3 energy=2.536611806503984 pbc="T T F"
Pt       1.32699268       0.76613958      10.00000000       0.01370707      -0.02398968      -1.27000630
Pt       2.65398537       1.53227917      12.28102103       0.02592778       0.13306977       1.23721695
Pt       2.61929050       0.12615983      14.75050334       0.87015933       0.21857104       2.30548334
H        0.79097741       0.41424903      16.58934290      -0.90979421      -0.32765114      -2.27269411
4
Lattice="2.653985369848837 0.0 0.0 1.326992684924419 2.298418751561331 0.0 0.0 0.0 24.562042063818488" Properties=species:S:1:pos:R:3:forces:R:3 energy=3.2135271488086943 pbc="T T F"
Pt       1.32699268       0.76613958      10.00000000       0.04053833      -0.02300238      -1.49570000
Pt       2.65398537       1.53227917      12.28102103       0.25050235      -0.13243471      -1.46906340
Pt       1.40811580       2.26198336      14.48204206       4.04976845      -2.58718705      -1.72762442
H        1.75628990       0.64770476      15.16204206      -4.34080935       2.74262428       4.69238806
4
Lattice="2.653985369848837 0.0 0.0 1.326992684924419 2.298418751561331 0.0 0.0 0.0 24.562042063818488" Properties=species:S:1:pos:R:3:forces:R:3 energy=3.0744800944021478 pbc="T T F"
Pt       1.32699268       0.76613958      10.00000000       0.02334099      -0.00388211      -1.25294447
Pt       2.65398537       1.53227917      12.28102103      -0.06557033      -0.02612267       1.29171133
Pt       3.84667168       2.29682657      14.75073621      -0.52418470      -0.37569064       1.99765503
H        3.25479045       1.85814277      16.88634512       0.56641406       0.40569568      -2.03642178
4
Lattice="2.653985369848837 0.0 0.0 1.326992684924419 2.298418751561331 0.0 0.0 0.0 24.562042063818488" Properties=species:S:1:pos:R:3:forces:R:3 energy=1.9214252898136834 pbc="T T F"
Pt       1.32699268       0.76613958      10.00000000      -0.03570877       0.03688762      -1.35016322
Pt       2.65398537       1.53227917      12.28102103       0.24076146      -0.20231807      -0.46474263
Pt       1.41310251       2.14874389      14.53602068       0.26192114       0.53923959       2.43674445
H        0.75274160       0.31868408      15.96958397      -0.46697381      -0.37380913      -0.62183833
4
Lattice="2.653985369848837 0.0 0.0 1.326992684924419 2.298418751561331 0.0 0.0 0.0 24.562042063818488" Properties=species:S:1:pos:R:3:forces:R:3 energy=2.0695509470433677 pbc="T T F"
Pt       1.32699268       0.76613958      10.00000000      -0.00218390      -0.02144326      -1.32067430