4
Lattice="2.653985369848837 0.0 0.0 1.326992684924419 2.298418751561331 0.0 0.0 0.0 24.562042063818488" Properties=species:S:1:pos:R:3:forces:R:3 energy=4.446023350604278 pbc="T T F"
Pt       1.32699268       0.76613958      10.00000000      -0.06033531       0.00104670      -1.37189114
Pt       2.65398537       1.53227917      12.28102103       0.25188792      -0.04011384      -0.59170783
Pt       0.17270007       0.00821898      14.51186619      -0.19132455       0.03930703       1.98343885
H        1.64538602       0.75263307      20.01918450      -0.00022806      -0.00023988      -0.01983992
4
Lattice="2.653985369848837 0.0 0.0 1.326992684924419 2.298418751561331 0.0 0.0 0.0 24.562042063818488" Properties=species:S:1:pos:R:3:forces:R:3 energy=5.900487796084249 pbc="T T F"
Pt       1.32699268       0.76613958      10.00000000       0.01319387       0.04238978      -1.49435866
Pt       2.65398537       1.53227917      12.28102103      -0.35955748      -0.27928123      -1.85373056
Pt       1.21432693       2.10086059      14.48204206      -6.91733360      -8.38977623      -2.37162375
H        0.58096641       0.76747221      14.76204206       7.26369762       8.62666798       5.71971321
4
Lattice="2.653985369848837 0.0 0.0 1.326992684924419 2.298418751561331 0.0 0.0 0.0 24.562042063818488" Properties=species:S:1:pos:R:3:forces:R:3 energy=3.26333058440197 pbc="T T F"
Pt       1.32699268       0.76613958      10.00000000       0.01987026       0.01668312      -1.45245099
Pt       2.65398537       1.53227917      12.28102103      -0.05360185       0.21053609       0.29637083
Pt       2.52165692       0.17614751      14.68193970      -2.07509637       5.16002274      -4.74193048
H        1.65849705       1.42776862      15.36204206       2.10882807      -5.38724232       5.89801073
4
Lattice="2.653985369848837 0.0 0.0 1.326992684924419 2.298418751561331 0.0 0.0 0.0 24.562042063818488" Properties=species:S:1:pos:R:3:forces:R:3 energy=2.5137327450638765 pbc="T T F"
Pt       1.32699268       0.76613958      10.00000000       0.02989653       0.00855895      -1.25933492
Pt       2.65398537       1.53227917      12.28102103      -0.30477089      -0.06880427      -0.96239948
Pt       2.51859073       0.00412364      14.48204206      -0.24597257       0.91296047       4.44535065
H        2.14398711       0.61984862      16.26554400       0.52084666      -0.85271519      -2.22361636
4
Lattice="2.653985369848837 0.0 0.0 1.326992684924419 2.298418751561331 0.0 0.0 0.0 24.562042063818488" Properties=species:S:1:pos:R:3:forces:R:3 energy=3.5348064078816748 pbc="T T F"
Pt       1.32699268       0.76613958      10.00000000       0.06484220      -0.01162422      -1.22753084
Pt       2.65398537       1.53227917      12.28102103      -0.25974339      -0.08470114      -0.94848877
Pt       2.48089413       0.00638756      14.48204206      -0.20435387      -0.27044356       4.00047779
H        3.32702450       1.84266689      16.75433226       0.39925507       0.36676893      -1.82445824
4
Lattice="2.653985369848837 0.0 0.0 1.326992684924419 2.298418751561331 0.0 0.0 0.0 24.562042063818488" Properties=species:S:1:pos:R:3:forces:R:3 energy=4.192305745814352 pbc="T T F"
Pt       1.32699268       0.76613958      10.00000000      -0.06987128       0.00912639      -1.29975808
Pt       2.65398537       1.53227917      12.28102103       0.25782177      -0.08231927      -0.52588886
Pt       1.51255817       2.27489181      14.52266841      -0.21541502       0.10725589       2.29622722
H        1.58373429       0.53555181      17.30138857       0.02746427      -0.03406326      -0.47058004
4
Lattice="2.653985369848837 0.0 0.0 1.326992684924419 2.298418751561331 0.0 0.0 0.0 24.562042063818488" Properties=species:S:1:pos:R:3:forces:R:3 energy=3.852590432418779 pbc="T T F"
Pt       1.32699268       0.76613958      10.00000000      -0.01618047      -0.00643033      -1.38342822
Pt       2.65398537       1.53227917      12.28102103       0.43253493      -0.08448954      -1.59150171
Pt       0.18040332       0.00768023      14.48204206      -0.05728264       0.27704129     -12.56425476
H        1.47019898       2.29079003      15.69745706      -0.35907182      -0.18612166      15.53918362
4
Lattice="2.653985369848837 0.0 0.0 1.326992684924419 2.298418751561331 0.0 0.0 0.0 24.562042063818488" Properties=species:S:1:pos:R:3:forces:R:3 energy=2.0459801721617765 pbc="T T F"
Pt       1.32699268       0.76613958      10.00000000       0.02746736       0.01160056      -1.37972116
Pt       2.65398537       1.53227917      12.28102103      -0.01492654      -0.21846280      -1.04964340
Pt       1.33825196       2.23450523      14.48980057       0.16314730       0.00101121       1.49827528
H        2.22289797       0.72184803      15.75292978      -0.17568812       0.20585102       0.93108934
4
Lattice="2.653985369848837 0.0 0.0 1.326992684924419 2.298418751561331 0.0 0.0 0.0 24.562042063818488" Properties=species:S:1:pos:R:3:forces:R:3 energy=4.018829689043756 pbc="T T F"
Pt       1.32699268       0.76613958      10.00000000      -0.01399837      -0.03073908      -1.24554861
Pt       2.65398537       1.53227917      12.28102103       0.04159402       0.09881907      -0.92033803
Pt       0.04222744       0.05827055      14.48204206       0.18032947      -0.25670308       3.17577910
H        1.91657952       1.84359021      17.07889057      -0.20792539       0.18862309      -1.00989211
4
Lattice="2.653985369848837 0.0 0.0 1.326992684924419 2.298418751561331 0.0 0.0 0.0 24.562042063818488" Properties=species:S:1:pos:R:3:forces:R:3 energy=1.8517606715713697 pbc="T T F"
Pt       1.32699268       0.76613958      10.00000000       0.00920018       0.00852552      -1.27121365
Pt       2.65398537       1.53227917      12.28102103      -0.06204921      -0.04264046       0.51979536
Pt       3.93529359       2.25116261      14.63228505      -0.38927764       0.05623569       2.89853263
H        3.67770986       2.26409782      16.38089805       0.44212669      -0.02212075      -2.14711404
4
Lattice="2.653985369848837 0.0 0.0 1.326992684924419 2.298418751561331 0.0 0.0 0.0 24.562042063818488" Properties=species:S:1:pos:R:3:forces:R:3 energy=4.308006247164499 pbc="T T F"
Pt       1.32699268       0.76613958      10.00000000       0.06415700       0.05371343      -1.30403411
Pt       2.65398537       1.53227917      12.28102103      -0.34309086      -0.21407135      -1.04685175
Pt       3.82018800       2.17538614      14.48204206       0.19498271       0.20947884       2.78110504
H        1.52594776       0.35462710      17.36204206       0.08395141      -0.04912093      -0.43021911
4
Lattice="2.653985369848837 0.0 0.0 1.326992684924419 2.298418751561331 0.0 0.0 0.0 24.562042063818488" Properties=species:S:1:pos:R:3:forces:R:3 energy=4.220117007072091 pbc="T T F"
Pt       1.32699268       0.76613958      10.00000000      -0.00826455      -0.00343679      -1.37332761
Pt       2.65398537       1.53227917      12.28102103       0.01916912       0.00750994       1.10736680
Pt       0.04368489       0.01825959      14.71825671      -0.01079606      -0.00400398       0.28836697
H        1.53448730       2.22493623      19.99781049      -0.00010850      -0.00006916      -0.02240614
4
Lattice="2.653985369848837 0.0 0.0 1.326992684924419 2.298418751561331 0.0 0.0 0.0 24.562042063818488" Properties=species:S:1:pos:R:3:forces:R:3 energy=4.303610315745587 pbc="T T F"
Pt       1.32699268       0.76613958      10.00000000       0.04014495       0.06061376      -1.30115294
Pt       2.65398537       1.53227917      12.28102103      -0.21909837      -0.22501191      -0.99471337
Pt       3.88035225       2.15008187      14.48204206       0.15041958       0.14628653       2.70829034
H        3.07200920       1.19140524      17.36033007       0.02853385       0.01811162      -0.41242400
4
Lattice="2.653985369848837 0.0 0.0 1.326992684924419 2.298418751561331 0.0 0.0 0.0 24.562042063818488" Properties=species:S:1:pos:R:3:forces:R:3 energy=3.690488122842922 pbc="T T F"
Pt       1.32699268       0.76613958      10.00000000      -0.05241117       0.03405581      -1.28381360
Pt       2.65398537       1.53227917      12.28102103       0.19652358      -0.12178545       0.39662972
Pt       1.51740528       2.18286824      14.61952082      -0.41181028       0.30380440       2.16996169
H        2.33760657       0.29143969      17.11763055       0.26769787      -0.21607475      -1.28277767
4
Lattice="2.653985369848837 0.0 0.0 1.326992684924419 2.298418751561331 0.0 0.0 0.0 24.562042063818488" Properties=species:S:1:pos:R:3:forces:R:3 energy=1.81012031171214 pbc="T T F"
Pt       1.32699268       0.76613958      10.00000000      -0.03819528      -0.01742925      -1.37773037
Pt       2.65398537       1.53227917      12.28102103       0.19497859       0.19637702       0.32607606
Pt       0.18176582       0.15359850      14.64762560      -0.11089014      -0.12943192       0.22027054
H        3.49602350       2.00167980      15.96204206      -0.04589317      -0.04951559       0.83138376
4
Lattice="2.653985369848837 0.0 0.0 1.326992684924419 2.298418751561331 0.0 0.0 0.0 24.562042063818488" Properties=species:S:1:pos:R:3:forces:R:3 energy=2.560491634704718 pbc="T T F"
Pt       1.32699268       0.76613958      10.00000000      -0.01397857      -0.02373283      -1.28735125
Pt       2.65398537       1.53227917      12.28102103       0.06668697       0.18160629      -0.55548352
Pt       0.08028915       0.06421786      14.51923841       0.56588495      -0.48864898       3.78195214
H        2.50598327       1.97325864      16.16204206      -0.61859334       0.33077553      -1.93911743
4
Lattice="2.653985369848837 0.0 0.0 1.326992684924419 2.298418751561331 0.0 0.0 0.0 24.562042063818488" Properties=species:S:1:pos:R:3:forces:R:3 energy=2.8697106033059896 pbc="T T F"
Pt       1.32699268       0.76613958      10.00000000      -0.02735063      -0.00793751      -1.25569987
Pt       2.65398537       1.53227917      12.28102103       0.05821364       0.00811260       1.28665113
Pt       0.10472108       0.01162079      14.74961993      -0.60021198      -0.27729118       2.27243400
H        3.62294956       2.08992076      16.86204206       0.56934899       0.27711582      -2.30338526
4
Lattice="2.653985369848837 0.0 0.0 1.326992684924419 2.298418751561331 0.0 0.0 0.0 24.562042063818488" Properties=species:S:1:pos:R:3:forces:R:3 energy=4.204012220235214 pbc="T T F"
Pt       1.32699268       0.76613958      10.00000000      -0.02476101      -0.02276301      -1.37771654
Pt       2.65398537       1.53227917      12.28102103       0.04683265       0.04794234       1.14571559
Pt       0.15842967       0.13158884      14.73223434      -0.02186209      -0.02535262       0.26038465
H        1.24808175       1.00076587      19.36204206      -0.00020954       0.00017304      -0.02838370
4
Lattice="2.723827090108017 0.0 0.0 1.361913545054009 2.358903455549787 0.0 0.0 0.0 24.562042063818488" Properties=species:S:1:pos:R:3:forces:R:3 energy=1.392291788871276 pbc="T T F"
Pt       1.36191355       0.78630115      10.00000000      -0.00353990       0.00834683      -0.88599503
Pt       2.72382709       1.57260230      12.28102103      -0.00675557       0.12496925       0.87182593
Pt       2.76297329       0.13880550      14.72969159       0.23420900      -0.72113019       1.09971154
H        1.59511729       1.96847918      16.27986558      -0.22391354       0.58781385      -1.08554244
4
Lattice="2.723827090108017 0.0 0.0 1.361913545054009 2.358903455549787 0.0 0.0 0.0 24.562042063818488" Properties=species:S:1:pos:R:3:forces:R:3 energy=2.310761858570018 pbc="T T F"
Pt       1.36191355       0.78630115      10.00000000      -0.01183505      -0.03428387      -0.98214632
Pt       2.72382709       1.57260230      12.28102103      -0.25109962      -0.08210947      -1.25301075
Pt       2.59524078       0.04549101      14.48204206      -0.61253506      -3.34612751      -1.95690298
H        2.86878102       1.07199601      15.39146283       0.87546968       3.46252084       4.19206047
4
Lattice="2.723827090108017 0.0 0.0 1.361913545054009 2.358903455549787 0.0 0.0 0.0 24.562042063818488" Properties=species:S:1:pos:R:3:forces:R:3 energy=1.820922823882043 pbc="T T F"
Pt       1.36191355       0.78630115      10.00000000      -0.00658871       0.02124143      -0.94016147
Pt       2.72382709       1.57260230      12.28102103       0.11730839      -0.16258809      -1.26443577
Pt       1.43599418       2.28658721      14.48204206      -0.36619633      -0.14676218       0.79292083
H        2.47468614       1.29932405      15.36204206       0.25547665       0.28810859       1.41167617
4
Lattice="2.723827090108017 0.0 0.0 1.361913545054009 2.358903455549787 0.0 0.0 0.0 24.562042063818488" Properties=species:S:1:pos:R:3:forces:R:3 energy=3.3126034659899375 pbc="T T F"
Pt       1.36191355       0.78630115      10.00000000      -0.06898759      -0.01073281      -0.77883887
Pt       2.72382709       1.57260230      12.28102103       0.22187980      -0.01569453      -0.04876406
Pt       1.54644146       2.35703683      14.56177053      -0.65426612      -0.03808575       2.43856788
H        3.44868967       2.27734707      16.89986114       0.50137419       0.06451309      -1.61096513
4
Lattice="2.723827090108017 0.0 0.0 1.361913545054009 2.358903455549787 0.0 0.0 0.0 24.562042063818488" Properties=species:S:1:pos:R:3:forces:R:3 energy=2.618552229395405 pbc="T T F"
Pt       1.36191355       0.78630115      10.00000000       0.05795447       0.03029043      -0.81714600
Pt       2.72382709       1.57260230      12.28102103      -0.44193462      -0.32154965      -0.72405744
Pt       3.91832186       2.20129829      14.49728831       0.63469768      -0.55242008       3.70525122
H        1.48208457       1.27012190      16.37528040      -0.25071755       0.84367931      -2.16404772
4
Lattice="2.723827090108017 0.0 0.0 1.361913545054009 2.358903455549787 0.0 0.0 0.0 24.562042063818488" Properties=species:S:1:pos:R:3:forces:R:3 energy=3.9187813811486336 pbc="T T F"
Pt       1.36191355       0.78630115      10.00000000      -0.07598870      -0.01665741      -0.77807450
Pt       2.72382709       1.57260230      12.28102103       0.22139102      -0.01283161      -0.81158960
Pt       0.16179477       0.03031376      14.48204206      -0.07170602       0.01855051       2.29385519
H        2.61006628       1.55623339      17.14501644      -0.07369631       0.01093824      -0.70419103
4
Lattice="2.723827090108017 0.0 0.0 1.361913545054009 2.358903455549787 0.0 0.0 0.0 24.562042063818488" Properties=species:S:1:pos:R:3:forces:R:3 energy=4.073989822075433 pbc="T T F"
Pt       1.36191355       0.78630115      10.00000000       0.05155242       0.01405108      -0.87312436
Pt       2.72382709       1.57260230      12.28102103      -0.11027359      -0.03860229       0.82568467
Pt       3.88620781       2.31196371      14.70410975       0.05768656       0.02259126       0.08476696
H        3.68302425       1.84855234      18.91401041       0.00103487       0.00195995      -0.03732728
4
Lattice="2.723827090108017 0.0 0.0 1.361913545054009 2.358903455549787 0.0 0.0 0.0 24.562042063818488" Properties=species:S:1:pos:R:3:forces:R:3 energy=4.145289436460203 pbc="T T F"
Pt       1.36191355       0.78630115      10.00000000       0.01322447      -0.07680015      -0.82804465
Pt       2.72382709       1.57260230      12.28102103      -0.03135769       0.34019709      -0.84214461
Pt       2.69213855       0.17061541      14.48204206       0.02199887      -0.24782583       1.93975973
H        2.74049334       0.36169559      17.81041701      -0.00386540      -0.01557086      -0.26957041
4
Lattice="2.723827090108017 0.0 0.0 1.361913545054009 2.358903455549787 0.0 0.0 0.0 24.562042063818488" Properties=species:S:1:pos:R:3:forces:R:3 energy=2.3202774082265165 pbc="T T F"
Pt       1.36191355       0.78630115      10.00000000       0.00773156       0.02504872      -0.98499072
Pt       2.72382709       1.57260230      12.28102103      -0.02472039      -0.09657373      -1.22565448
Pt       1.34792763       2.29689992      14.49477728       0.28011787       0.84908247      -0.01480647
H        1.38087883       0.79126141      14.96654275      -0.26312903      -0.77755743       2.22545171
4
Lattice="2.723827090108017 0.0 0.0 1.361913545054009 2.358903455549787 0.0 0.0 0.0 24.562042063818488" Properties=species:S:1:pos:R:3:forces:R:3 energy=2.414782076460156 pbc="T T F"
Pt       1.36191355       0.78630115      10.00000000       0.03399616      -0.03608055      -0.80975896
Pt       2.72382709       1.57260230      12.28102103      -0.08680816       0.19918904       0.14765280
Pt       2.64353893       0.11158365      14.58358619       0.97538126      -0.34479526       2.96941376
H        2.07051210       2.33356208      16.49798717      -0.92256945       0.18168703      -2.30730772
4
Lattice="2.723827090108017 0.0 0.0 1.361913545054009 2.358903455549787 0.0 0.0 0.0 24.562042063818488" Properties=species:S:1:pos:R:3:forces:R:3 energy=1.8957341356881585 pbc="T T F"
Pt       1.36191355       0.78630115      10.00000000      -0.03014747      -0.05232607      -0.88767213
Pt       2.72382709       1.57260230      12.28102103       0.10695713       0.33001912       0.14707997
Pt       0.13135433       0.19092502      14.61212667      -0.44675133      -0.57056129       2.48909426
H        3.00127701       2.20531456      16.08716104       0.36994141       0.29286796      -1.74850178
4
Lattice="2.723827090108017 0.0 0.0 1.361913545054009 2.358903455549787 0.0 0.0 0.0 24.562042063818488" Properties=species:S:1:pos:R:3:forces:R:3 energy=3.8351550768229714 pbc="T T F"
Pt       1.36191355       0.78630115      10.00000000      -0.04074402       0.00160308      -0.81249309
Pt       2.72382709       1.57260230      12.28102103       0.08451936      -0.01524047       0.58734930
Pt       0.12628586       0.00903226      14.65069981      -0.06403744       0.13440005       0.79493064
H        2.58284285       1.05910575      17.46070569       0.02026184      -0.12076293      -0.56978661
4
Lattice="2.723827090108017 0.0 0.0 1.361913545054009 2.358903455549787 0.0 0.0 0.0 24.562042063818488" Properties=species:S:1:pos:R:3:forces:R:3 energy=4.089388065268409 pbc="T T F"
Pt       1.36191355       0.78630115      10.00000000      -0.02542898      -0.02239071      -0.86632121
Pt       2.72382709       1.57260230      12.28102103       0.05439015       0.05153905       0.72189540
Pt       0.09569922       0.08113963      14.67580613      -0.02924862      -0.02893571       0.17229889
H        1.69920984       0.51266012      19.36204206       0.00028745      -0.00021289      -0.02787307
4
Lattice="2.723827090108017 0.0 0.0 1.361913545054009 2.358903455549787 0.0 0.0 0.0 24.562042063818488" Properties=species:S:1:pos:R:3:forces:R:3 energy=4.0963452684182045 pbc="T T F"
Pt       1.36191355       0.78630115      10.00000000       0.01406342      -0.01641007      -0.86334950
Pt       2.72382709       1.57260230      12.28102103      -0.03120137       0.04025345       0.59646153
Pt       2.67838222       0.05290625      14.65096933       0.01691709      -0.02380173       0.29459471
H        2.43049190       0.17070783      19.45910356       0.00022086      -0.00004139      -0.02770698
4
Lattice="2.723827090108017 0.0 0.0 1.361913545054009 2.358903455549787 0.0 0.0 0.0 24.562042063818488" Properties=species:S:1:pos:R:3:forces:R:3 energy=1.4905118317556258 pbc="T T F"
Pt       1.36191355       0.78630115      10.00000000      -0.00913102      -0.00385048      -0.92258334
Pt       2.72382709       1.57260230      12.28102103       0.16138507       0.02497621       0.39483458
Pt       1.43408401       2.34063270      14.66234854      -0.01202119       0.03334618       0.18415990
H        3.23472614       1.85713291      15.86204206      -0.14023286      -0.05447191       0.34358889
4
Lattice="2.723827090108017 0.0 0.0 1.361913545054009 2.358903455549787 0.0 0.0 0.0 24.562042063818488" Properties=species:S:1:pos:R:3:forces:R:3 energy=1.5061601475854474 pbc="T T F"
Pt       1.36191355       0.78630115      10.00000000       0.02575037      -0.01698291      -0.91831636
Pt       2.72382709       1.57260230      12.28102103      -0.15481564       0.07603139       0.41847715
Pt       2.52566304       0.05289286      14.66999860       0.04753816      -0.21486993       1.23385274
H        2.57599252       2.00585878      15.86204206       0.08152711       0.15582146      -0.73401350
4
Lattice="2.723827090108017 0.0 0.0 1.361913545054009 2.358903455549787 0.0 0.0 0.0 24.562042063818488" Properties=species:S:1:pos:R:3:forces:R:3 energy=4.065097957392041 pbc="T T F"
Pt       1.36191355       0.78630115      10.00000000       0.05198643      -0.03278157      -0.86480242
Pt       2.72382709       1.57260230      12.28102103      -0.10320229       0.06843017       0.59638107
Pt       2.52687130       0.12340462      14.66042600       0.05167789      -0.03826265       0.31860650
H        1.63727582       1.33975958      18.44583667      -0.00046177       0.00261404      -0.05018511
4
Lattice="2.723827090108017 0.0 0.0 1.361913545054009 2.358903455549787 0.0 0.0 0.0 24.562042063818488" Properties=species:S:1:pos:R:3:forces:R:3 energy=4.0717157665267365 pbc="T T F"
Pt       1.36191355       0.78630115      10.00000000      -0.05030492       0.01690860      -0.87086433
Pt       2.72382709       1.57260230      12.28102103       0.11176561      -0.04483927       0.78989667
Pt       1.55058514       2.30118604      14.69646490      -0.05876797       0.02887529       0.11816791
H        1.01494861       0.23944985      18.81110546      -0.00269272      -0.00094462      -0.03720026
4
Lattice="2.723827090108017 0.0 0.0 1.361913545054009 2.358903455549787 0.0 0.0 0.0 24.562042063818488" Properties=species:S:1:pos:R:3:forces:R:3 energy=4.117190074651276 pbc="T T F"
Pt       1.36191355       0.78630115      10.00000000      -0.03167754       0.01301030      -0.87113947
Pt       2.72382709       1.57260230      12.28102103       0.07371894      -0.03192334       0.80205804
Pt       1.47809806       2.31384394      14.69255594      -0.04204294       0.01883565       0.07823019
H        2.48481427       0.85303407      20.94748772       0.00000180       0.00007739      -0.00914850
4
Lattice="2.723827090108017 0.0 0.0 1.361913545054009 2.358903455549787 0.0 0.0 0.0 24.562042063818488" Properties=species:S:1:pos:R:3:forces:R:3 energy=4.1993375081629125 pbc="T T F"
Pt       1.36191355       0.78630115      10.00000000       0.04443484      -0.03466233      -0.85391611
Pt       2.72382709       1.57260230      12.28102103      -0.12934090       0.11529727      -0.30607238
Pt       2.60848227       0.08871290      14.53060125       0.08459496      -0.08049019       1.18133843
H        2.83199814       2.00631599      19.93069322       0.00031085      -0.00014475      -0.02134967
4
Lattice="2.723827090108017 0.0 0.0 1.361913545054009 2.358903455549787 0.0 0.0 0.0 24.562042063818488" Properties=species:S:1:pos:R:3:forces:R:3 energy=3.9351369889382255 pbc="T T F"
Pt       1.36191355       0.78630115      10.00000000       0.01566368       0.00803830      -0.94481778
Pt       2.72382709       1.57260230      12.28102103       0.06544255       0.04860645      -0.12181682
Pt       2.72246191       0.00730500      14.62413693       3.83575940       2.05741596     -17.43907356
H        3.82003713       2.22327198      15.76204206      -3.91686559      -2.11406064      18.50570869
4
Lattice="2.723827090108017 0.0 0.0 1.361913545054009 2.358903455549787 0.0 0.0 0.0 24.562042063818488" Properties=species:S:1:pos:R:3:forces:R:3 energy=2.151095104120955 pbc="T T F"
Pt       1.36191355       0.78630115      10.00000000       0.05372398       0.03269775      -0.87305748
Pt       2.72382709       1.57260230      12.28102103      -0.45613199      -0.26721939      -1.02147567
Pt       3.91740318       2.25521379      14.48204206       0.62607342       0.35276181       3.61930776
H        2.34198258       1.34933933      15.96204206      -0.22366543      -0.11824016      -1.72477484
4
Lattice="2.723827090108017 0.0 0.0 1.361913545054009 2.358903455549787 0.0 0.0 0.0 24.562042063818488" Properties=species:S:1:pos:R:3:forces:R:3 energy=2.1500658334362157 pbc="T T F"
Pt       1.36191355       0.78630115      10.00000000       0.01272953      -0.02133296      -0.86448157
Pt       2.72382709       1.57260230      12.28102103       0.03732368       0.10787270       0.94676304
Pt       2.63888644       0.17760078      14.73421918      -0.24391414       0.18590106       1.99316919
H        2.99831020       1.49011142      16.36204206       0.19386093      -0.27244106      -2.07545066
4
Lattice="2.723827090108017 0.0 0.0 1.361913545054009 2.358903455549787 0.0 0.0 0.0 24.562042063818488" Properties=species:S:1:pos:R:3:forces:R:3 energy=3.60150981504286 pbc="T T F"
Pt       1.36191355       0.78630115      10.00000000       0.04618216       0.08873752      -0.77626240
Pt       2.72382709       1.57260230      12.28102103      -0.28328776      -0.29425043      -0.88117522
Pt       3.95842587       2.17190608      14.48204206       0.27462882       0.56185704       2.95065522
H        2.80622402       0.87344846      16.86204206      -0.03752320      -0.35634437      -1.29321766
4
Lattice="2.863510530626377 0.0 0.0 1.431755265313188 2.479872863526699 0.0 0.0 0.0 24.562042063818488" Properties=species:S:1:pos:R:3:forces:R:3 energy=1.546125782680079 pbc="T T F"
Pt       1.43175527       0.82662429      10.00000000       0.02851791      -0.02736734      -0.11999828
Pt       2.86351053       1.65324858      12.28102103      -0.11827821       0.16992293      -0.20998715
Pt       2.72908918       0.16147177      14.59539455      -0.02768898      -0.03427821       0.38456070
H        2.44989861       1.74539852      15.55140100       0.11744929      -0.10827739      -0.05457527
4
Lattice="2.863510530626377 0.0 0.0 1.431755265313188 2.479872863526699 0.0 0.0 0.0 24.562042063818488" Properties=species:S:1:pos:R:3:forces:R:3 energy=1.6407856918731483 pbc="T T F"
Pt       1.43175527       0.82662429      10.00000000       0.03846268       0.05963340      -0.14978966
Pt       2.86351053       1.65324858      12.28102103      -0.04754510      -0.14577617      -0.21872067
Pt       1.40430362       2.33895833      14.58049399       0.14028968       0.80970728      -0.84219396
H        1.78587422       0.98946034      15.36204206      -0.13120726      -0.72356457       1.21070433
4
Lattice="2.863510530626377 0.0 0.0 1.431755265313188 2.479872863526699 0.0 0.0 0.0 24.562042063818488" Properties=species:S:1:pos:R:3:forces:R:3 energy=1.573846361991869 pbc="T T F"
Pt       1.43175527       0.82662429      10.00000000      -0.01325327       0.01061197      -0.12919563
Pt       2.86351053       1.65324858      12.28102103       0.02799032       0.03578513       0.46143720
Pt       0.16232097       0.08196014      14.71199405       0.11433516      -0.05719497       0.29260546
H        2.42632827       1.53713034      15.86204206      -0.12907222       0.01079761      -0.62484705
4
Lattice="2.863510530626377 0.0 0.0 1.431755265313188 2.479872863526699 0.0 0.0 0.0 24.562042063818488" Properties=species:S:1:pos:R:3:forces:R:3 energy=4.40816408089178 pbc="T T F"
Pt       1.43175527       0.82662429      10.00000000      -0.04648735      -0.04162848       0.02155896
Pt       2.86351053       1.65324858      12.28102103       0.09931247       0.10066127       0.03905249
Pt       0.11268791       0.09707557      14.57583310      -0.05071913      -0.05749913      -0.01973348
H        0.78138860       0.67176635      18.83044767      -0.00210599      -0.00153366      -0.04087771
4
Lattice="2.863510530626377 0.0 0.0 1.431755265313188 2.479872863526699 0.0 0.0 0.0 24.562042063818488" Properties=species:S:1:pos:R:3:forces:R:3 energy=4.458872567188351 pbc="T T F"
Pt       1.43175527       0.82662429      10.00000000      -0.02989525      -0.00092251       0.01754984
Pt       2.86351053       1.65324858      12.28102103       0.05885693      -0.00168587       0.45123944
Pt       0.08027548       0.00208306      14.66470837      -0.02898559       0.00267189      -0.44467592
H        1.54840352       1.46254806      19.81955866       0.00002365      -0.00006376      -0.02411335
4
Lattice="2.863510530626377 0.0 0.0 1.431755265313188 2.479872863526699 0.0 0.0 0.0 24.562042063818488" Properties=species:S:1:pos:R:3:forces:R:3 energy=4.42748232835676 pbc="T T F"
Pt       1.43175527       0.82662429      10.00000000       0.04058487       0.04406563       0.02092698
Pt       2.86351053       1.65324858      12.28102103      -0.11967123      -0.11070091      -0.00496454
Pt       4.20503232       2.37803647      14.56752514       0.07887091       0.06641109       0.01251973
H        2.99382410       1.98089150      19.36204206       0.00021546       0.00022420      -0.02848191
4
Lattice="2.863510530626377 0.0 0.0 1.431755265313188 2.479872863526699 0.0 0.0 0.0 24.562042063818488" Properties=species:S:1:pos:R:3:forces:R:3 energy=2.164665830611753 pbc="T T F"
Pt       1.43175527       0.82662429      10.00000000      -0.01053381      -0.02244727      -0.08068226
Pt       2.86351053       1.65324858      12.28102103       0.02431801       0.03630732       0.10045250
Pt       0.04599657       0.07891561      14.75413598       0.00167790      -0.66218048      -0.49974766
H        1.47819334       0.83804887      14.76204206      -0.01546210       0.64832044       0.47997743
4
Lattice="2.863510530626377 0.0 0.0 1.431755265313188 2.479872863526699 0.0 0.0 0.0 24.562042063818488" Properties=species:S:1:pos:R:3:forces:R:3 energy=1.5880558757753676 pbc="T T F"
Pt       1.43175527       0.82662429      10.00000000       0.05470305       0.06549037      -0.14794746