144
Lattice="11.174675241468789 0.0 0.0 5.587337620734394 9.677552638152974 0.0 0.0 0.0 46.84306309572773" Properties=species:S:1:pos:R:3:forces:R:3 energy=38.71931425249491 pbc="T T T"
Pt       0.00358460       0.00405103      19.99174245      -0.04138988      -0.07068811      -0.16090222
Pt       8.38562455       9.67335648      20.00600843      -0.05750221       0.08855394      -1.26589096
Pt      11.17672831       9.67708420      20.00399405       0.02638363      -0.10563918      -1.27808034
Pt      13.96114512       9.67115611      20.00449268       0.05626011       0.06459255      -1.14364636
Pt      12.56139510       2.42580409      19.98895393       0.21876079      -0.11271537      -1.25851417
Pt       4.18738824       2.42113251      20.00549242      -0.08221669      -0.00970900      -0.86111212
Pt       6.97884413       2.42190676      19.98875130       0.16134804      -0.04361363      -0.15258187
Pt       9.78452898       2.41273924      20.00022508      -0.06253283       0.12466998      -0.68206513
Pt       2.80027712       4.83313817      19.99641124      -0.17315404       0.12435990      -0.67128062
Pt       5.58381950       4.85610172      20.00111712       0.01437118      -0.20595206      -0.92321044
Pt       8.37060405       4.83950086      19.99423707       0.02000216      -0.07244212      -0.91321707
Pt      11.16661914       4.84546534      20.00251702      -0.17306560      -0.06053380      -1.32867038
Pt       4.19284371       7.25065773      19.99456009       0.01509058       0.21522963      -0.38930285
Pt       6.99437516       7.26169933      20.00335391       0.04746231      -0.00890656      -0.64070737
Pt       9.77123295       7.27462449      19.99735261       0.18013690      -0.18673949      -0.37096831
Pt      12.57663789       7.25700173      19.98712042      -0.08359223      -0.06695179      -0.11570016
Pt       1.39845142       0.79940063      22.27820240       0.03149936       0.10503600       0.29598901
Pt       4.19214465       0.80039449      22.28116383      -0.06895365       0.07246629       0.20341696
Pt       6.97542558       0.80246434      22.28058641       0.12412079       0.05437858       0.27051812
Pt       9.77856329       0.80870276      22.27440231      -0.01299538       0.01585085       0.32159284
Pt       2.79259927       3.22674845      22.28789316       0.01419326      -0.05459764       0.16647792
Pt       5.59419614       3.21851465      22.27802881      -0.08516034       0.13307208       0.24592862
Pt       8.37772752       3.22308921      22.27976797       0.03637160       0.01023890       0.28583959
Pt      11.18160856       3.21895887      22.28708530      -0.06185972       0.06695590       0.18024181
Pt       4.18025798       5.65011650      22.27112696       0.18407892      -0.07163429       0.36685300
Pt       6.99010423       5.64866322      22.27702225      -0.13922936      -0.06905650       0.29826906
Pt       9.77356932       5.64521942      22.27764986       0.07356595       0.01310389       0.33929539
Pt      12.57539052       5.64305502      22.29338787      -0.10342623       0.04548848      -0.03408923
Pt       5.59273394       8.07047570      22.28143331      -0.03882495      -0.09662129       0.20678382
Pt       8.37686236       8.05951084      22.27752680       0.07541458       0.05238289       0.45006317
Pt      11.18145151       8.06834981      22.28824383      -0.02888609      -0.14866839       0.12349087
Pt      13.98169733       8.07255477      22.27889554      -0.11679700      -0.09166369       0.31724331
Pt      11.18139173       1.61315888      24.56749349      -0.15102944       0.00732070      -0.27737373
Pt       2.79133116       1.61665186      24.56895914       0.06497821      -0.05656299      -0.40446052
Pt       5.58388867       1.60785926      24.56033020       0.05612179       0.10192548      -0.22090715
Pt       8.37671334       1.61974449      24.56482847       0.07660654      -0.12477359      -0.30940273
Pt      12.57009469       4.02957734      24.56325607      -0.03735813      -0.03256688      -0.17257272
Pt       4.19617565       4.02393120      24.56335861       0.00686048       0.10296395      -0.19751911
Pt       6.99191148       4.03992165      24.56691940      -0.13459753      -0.08740183      -0.34583116
Pt       9.76768632       4.03768389      24.56695042       0.11465424      -0.06767812      -0.29573834
Pt      13.95491345       6.44872168      24.55992005       0.20248777       0.02726321      -0.15117007
Pt       5.58434369       6.45361915      24.55727421      -0.06474887      -0.06630053      -0.34836778
Pt       8.36999345       6.45011545      24.56784228       0.19844547       0.10274900      -0.41988227
Pt      11.18269234       6.44523212      24.56361063      -0.16800721       0.04842982      -0.30779526
Pt      15.37119122       8.85912128      24.55968575      -0.11501779       0.18299057      -0.11770125
Pt       6.98638118       8.87440380      24.56831668       0.02930029      -0.04187942      -0.34120831
Pt       9.78050000       8.87656013      24.55494418      -0.11111563      -0.16789228      -0.09523624
Pt      12.56648885       8.86658105      24.55632250       0.08895452       0.04970586      -0.22663067
Pt       5.59917478       9.67445634      26.85028976      -0.13173562       0.00466707      -0.24573834
Pt       8.38690760       9.67204018      26.84241186      -0.10646193       0.06524972       0.82232964
Pt       5.57589082       0.00392875      26.84550638       0.02005795      -0.00010953      -0.02052692
Pt       8.36938902       0.00491753      26.83011978      -0.04397564      -0.11910097       1.79537296
Pt       1.40272349       2.41792808      26.84311224      -0.14048252      -0.02109899       0.62250990
Pt       4.18190671       2.41807092      26.84600772       0.10900373       0.22161728       1.35130334
Pt       6.98657757       2.42239544      26.84348744      -0.13294147       0.11331161       0.87680280
Pt       9.76249946       2.41557237      26.85154555       0.15946138       0.01736652       0.78642982
Pt       2.79413784       4.83522079      26.83995094       0.02210198       0.12590462       0.73237675
Pt       5.59422478       4.84683208      26.84541092       0.13500941      -0.00778042       1.32732129
Pt       8.38940303       4.84201988      26.85168187      -0.01006098      -0.04190667       0.10199207
Pt      11.16898310       4.84963536      26.84211701       0.16711067      -0.20795830       0.42467070
Pt       4.20411543       7.26105500      26.84545079      -0.12695825      -0.02357522       0.63996077
Pt       6.98862592       7.25032584      26.83771205       0.05203450      -0.01321650       0.97084194
Pt       9.78305837       7.24293343      26.84521392      -0.02230149       0.17081486       1.20727313
Pt      12.56895678       7.26176533      26.84603249       0.05929479       0.12792680       0.57158661
H        5.68507526       9.60966130      28.36019439      -0.04129449       0.00703942       0.91474718
H        2.65473541       0.16023726      28.39677610       0.15690236      -0.17677364      -0.12332554
H        5.55601924       0.15428798      28.36214508      -0.02679553      -0.04227382       0.69607997
H       13.82916781       9.67503777      28.46980294       0.14898053       0.00103024      -1.33534551
H        1.44514060       2.28851309      28.39258456      -0.05891272       0.12870352       0.10439040
H        4.15207008       2.53669284      28.44813333       0.04878154      -0.12096862      -0.71174902
H        6.94849805       2.51014099      28.41291291       0.03111626      -0.06651084      -0.19970557
H        9.74578327       2.41710943      28.42101576       0.02593575      -0.00323830      -0.17586887
H       13.98201176       4.91636234      28.40264655      -0.01283212      -0.05728598      -0.07162888
H        5.78356331       4.95371613      28.44068237      -0.22996643      -0.14180227      -0.73961389
H        8.48037867       4.96461765      28.37057810      -0.01514714      -0.07057010       0.63913697
H       11.25045380       4.87731527      28.38542507      -0.03074783      -0.02904576       0.27627867
H        4.27448817       7.18215497      28.40095884      -0.06338901       0.06677078       0.02359322
H        7.03444500       7.12293362      28.40875113      -0.02809522       0.15324265      -0.25888491
H        9.81019457       7.19481304      28.44362027      -0.02581851       0.09461172      -0.60754013
H       12.50225799       7.42866590      28.39074607       0.05277318      -0.11231299       0.10543195
H        5.67318214       9.62152216      18.46250334      -0.04499919       0.02769978      -0.53178257
H        8.34464660       9.61242281      18.41038979       0.07348522       0.07637668       0.57210416
H       11.21960661       9.61530950      18.40383338      -0.11113440      -0.02581928       0.85620517
H       13.90323463       9.62115993      18.41541133       0.15447061       0.06444676       0.73923928
H        1.48999305       2.34473425      18.39106768      -0.12025899       0.10419731       0.67034835
H        4.16531869       2.41673117      18.43065514      -0.05857745       0.05108937       0.37314063
H        7.07562156       2.34659801      18.45747511       0.01372429       0.09819275      -0.26168048
H        9.82001608       2.52631071      18.44282862      -0.02374260      -0.11748014       0.00486684
H       13.92579304       4.93545183      18.43805353       0.02324097      -0.08046114       0.01527955
H        5.53924835       4.77491321      18.42852215       0.04308784       0.08252059       0.22768149
H        8.36628716       4.79906570      18.41702215      -0.02637978       0.02643069       0.29195520
H       10.94130630       4.79018945      18.40782984       0.29446846       0.07728480       0.75289130
H       15.32603822       7.44229812      18.46263361       0.05253793      -0.11702994      -0.32397187
H        7.25806708       7.28608676      18.47029998      -0.21591380      -0.03480605      -0.12522584
H        9.77576270       7.18967141      18.45419690       0.03471864       0.05885667      -0.26676714
H       12.61929167       7.30301307      18.45392156      -0.03707660      -0.05229830      -0.45288906
H        9.03152932       7.31523891      13.60187862      -0.46835631       0.71747309      -0.48184353
H        8.66315310       7.88189279      13.21852750       0.46260911      -0.71711624       0.48928818
H        0.74161542       0.87379292      32.77789398      -0.17064078       0.12967438      -0.24070439
H       11.50214403       1.17694720      32.22032488       0.17539142      -0.13497162       0.22723155
H        5.10162579       7.52157533      14.72682043      -0.09366170       0.05955035       0.00045509
H       15.70610466       8.00795359      14.66402409       0.09714323      -0.10304160       0.01940952
H        2.37805207       2.17523324      36.35447773       0.23150009      -0.14265484       0.02465714
H        1.74929999       2.56120168      36.28425053      -0.23276997       0.14095715      -0.03064112
H       10.80222449       7.36302649       8.80696089       0.67684191      -0.64968026      -0.07096785
H       10.28195065       7.86485379       8.86302539      -0.67308480       0.65295845       0.07620416
H        7.59772539       0.92918789      33.80034223       0.86930573      -0.61602426      -0.04723426
H        7.00801406       1.34617139      33.82728408      -0.86523956       0.60926205       0.03351022
H        4.21811511       7.01555219       1.20843812       0.87355733      -0.65900028       0.34107152
H       14.88571177       7.50378716       1.36116160      -0.43241203       0.59021270       0.75139028
H        8.63398516       2.44812888      38.62927145       0.64168984      -0.26217875      -0.03265636
H        7.98266567       2.77654474      38.64992727      -0.59618670       0.35447675       0.01601206
H        5.99986085       1.47580797      16.85879321       0.59344614      -0.09992696      -0.53071302
H        5.33366552       1.67643506      17.06895686      -0.74252564       0.25347248      -0.03708019
H        4.70670315       6.63045146      34.93381522       0.64760077      -0.11835046      -0.19034418
H        4.01589399       6.75845330      35.13560982      -0.64887375       0.12106992       0.18974152
H       13.43115912       9.58306254      16.22571874      -0.80820602       0.22021912       0.83663446
H        7.35094257       0.06257550      16.81911151       0.88922924      -0.37652266      -1.16162419
H       13.63091333       9.67217731      45.00832818      -1.19097388       0.06877753       0.30864528
H        7.28940073       0.01695470      45.21979582       1.16117358      -0.00837768      -0.33990914
H        7.71634420       0.81310865      10.92034020      -0.17379218      -1.91854191       0.53709501
H        7.64537767       0.03244025      11.13822932       0.17221507       1.91494215      -0.53395414
H       14.57384393       7.72137168      46.22468886      -0.13835827       0.11334298      -0.54656851
H       14.28520197       7.07786917      46.44252950      -0.26323959      -0.09928855      -0.51050079
H        6.67454970       9.62146792       2.49583349      -0.01990651       0.09484723       0.00158688
H        6.66468926       8.88971263       2.37717349      -0.01109611      -0.28279796      -0.05346610
H        5.69647373       2.17129160      39.99481326      -0.78030264       1.89286888      -0.24827088
H        5.95496866       1.52557762      40.08430950       0.74377471      -1.89771318       0.26684660
H       12.29028571       2.50583383       3.20038830       0.29831588      -0.81153303      -0.25011951
H        1.35834839       1.80204479       2.98688753      -0.27741641       0.99381322       0.29743114
H        8.98151553       0.74926642      30.71607722       0.04814134      -0.06956557       0.03395091
H        9.24981991       0.19121243      30.28986308      -0.00721786       0.08980992       0.15338714
H        4.62506573       5.28045218       7.92568071       0.28006747      -0.38398787      -0.79048473
H        4.85997007       4.95783579       7.26179826      -0.28034154       0.38419586       0.79107016
H        9.57708423       8.91870577      32.66363196       0.05146115      -0.31059700      -0.51811874
H        9.64280330       8.51838488      32.01401996      -0.05395640       0.31949893       0.49543259
H        2.80583188       4.38286791      14.47121343       0.10773078       0.06551789       0.33133116
H        2.57860589       4.25060976      13.77970154      -0.10322852      -0.05982546      -0.31216717
H        8.84594412       8.08259502      42.89238495       0.33463323       0.01054847       1.07592118
H        8.63239578       8.07602243      42.20401282      -0.33311293      -0.00948917      -1.07644105
H       10.09655272       0.97130696      15.40739252       0.14182644      -0.02093264       0.67075616
H        9.95714336       1.02346746      14.69086990      -0.12137330       0.07333712      -0.65083599
H       13.62628870       9.59964606      38.86427555       0.19064243      -0.02443268       0.30249673
H       13.22796684       9.55076037      38.24491810      -0.20033138      -0.06474295      -0.30907518
144
Lattice="11.174675241468789 0.0 0.0 5.587337620734394 9.677552638152974 0.0 0.0 0.0 46.84306309572773" Properties=species:S:1:pos:R:3:forces:R:3 energy=38.652695404717775 pbc="T T T"
Pt       0.00389496       0.00450994      19.99099738      -0.03379612      -0.08445535      -0.32538882
Pt       8.38613196       9.67294705      20.00655976      -0.06266499       0.09771967      -1.23477137
Pt      11.17693327       9.67710488      20.00428985       0.02321604      -0.10357484      -1.10700166
Pt      13.96047947       9.67070310      20.00468093       0.06590123       0.07008854      -1.04781234
Pt      12.56063562       2.42646336      19.98798144       0.23759103      -0.12137948      -1.25853479
Pt       4.18707212       2.42120904      20.00592090      -0.08397944      -0.01107143      -0.85510039
Pt       6.97850934       2.42206294      19.98774186       0.17213126      -0.05473879      -0.24830405
Pt       9.78507880       2.41205768      20.00025463      -0.06590612       0.14122686      -0.73082250
Pt       2.80104869       4.83260224      19.99616315      -0.19191590       0.14004825      -0.72977018
Pt       5.58343854       4.85761373      20.00130558       0.01858316      -0.22608227      -0.96161038
Pt       8.36970136       4.83932730      19.99369119       0.02111981      -0.07665051      -0.88571608
Pt      11.16581177       4.84609238      20.00255317      -0.17951649      -0.06521064      -1.27748203
Pt       4.19310298       7.25002505      19.99391827       0.00690727       0.26758811      -0.67041522
Pt       6.99531763       7.26187131      20.00369439       0.06040422      -0.00354478      -0.71833491
Pt       9.77051209       7.27615750      19.99703584       0.19789603      -0.20915720      -0.42942414
Pt      12.57701522       7.25692875      19.98601059      -0.08895607      -0.07103778      -0.15048206
Pt       1.39859420       0.79874702      22.27790387       0.03195213       0.11319180       0.29613248
Pt       4.19227995       0.79982730      22.28129358      -0.07561949       0.08279236       0.20557772
Pt       6.97488237       0.80209645      22.28061464       0.13350943       0.06221145       0.27457431
Pt       9.77853576       0.80882225      22.27401514      -0.00998797       0.01819467       0.32161418
Pt       2.79248542       3.22683477      22.28843700       0.01718783      -0.06040679       0.16027102
Pt       5.59476803       3.21781569      22.27758763      -0.09045553       0.14176781       0.24753298
Pt       8.37726111       3.22277480      22.27975560       0.04138474       0.01048085       0.28176361
Pt      11.18239164       3.21810598      22.28765499      -0.07157000       0.07344511       0.17754343
Pt       4.17947438       5.65052689      22.27019570       0.19626004      -0.07253828       0.37015224
Pt       6.99061575       5.64888601      22.27661806      -0.15127909      -0.07371353       0.30235815
Pt       9.77319977       5.64518861      22.27727561       0.08085709       0.01485866       0.34882236
Pt      12.57574598       5.64280793      22.29450248      -0.11069166       0.04989458      -0.06237188
Pt       5.59309061       8.07100629      22.28156917      -0.04024111      -0.10518409       0.18972506
Pt       8.37661734       8.05901647      22.27739052       0.08120085       0.05590607       0.46350232
Pt      11.18205754       8.06877452      22.28884842      -0.03268567      -0.16568756       0.11261176
Pt      13.98277789       8.07320062      22.27889123      -0.12554131      -0.10102945       0.31587470
Pt      11.18217939       1.61329112      24.56800393      -0.16637868       0.00390191      -0.27301133
Pt       2.79106376       1.61689514      24.56954838       0.06917065      -0.06052532      -0.41951409
Pt       5.58352856       1.60738448      24.56025134       0.06206824       0.10867283      -0.21682860
Pt       8.37640219       1.62044865      24.56492253       0.08433116      -0.13349786      -0.31424975
Pt      12.57000777       4.02925552      24.56338339      -0.04033701      -0.03374419      -0.16360188
Pt       4.19680813       4.02336341      24.56346815       0.00555153       0.11292363      -0.20066021
Pt       6.99240108       4.04056932      24.56724759      -0.14114021      -0.09253298      -0.34710616
Pt       9.76674305       4.03822996      24.56744456       0.12311395      -0.07201815      -0.29449368
Pt      13.95365322       6.44847430      24.55972932       0.22105035       0.02970087      -0.13639523
Pt       5.58414491       6.45385158      24.55695050      -0.07144736      -0.07118100      -0.35682827
Pt       8.36915215       6.44999949      24.56827758       0.21310976       0.10786396      -0.43158850
Pt      11.18344042       6.44485040      24.56373996      -0.18154973       0.04955416      -0.31002596
Pt      15.37175255       8.85807520      24.55944632      -0.11959693       0.19798781      -0.10332570
Pt       6.98661973       8.87476211      24.56880013       0.02818006      -0.04574738      -0.34307542
Pt       9.78073178       8.87703544      24.55419547      -0.11823630      -0.17973426      -0.07562592
Pt      12.56597563       8.86618328      24.55578655       0.09387690       0.05464186      -0.21883921
Pt       5.60023936       9.67422038      26.85089816      -0.13065293      -0.00653934      -0.02974355
Pt       8.38736507       9.67145084      26.84227126      -0.12238581       0.07720329       0.88910580
Pt       5.57474230       0.00426221      26.84553869       0.01975225       0.02575114       0.22848932
Pt       8.36857525       0.00522024      26.82909962      -0.04132560      -0.12677699       1.68690097
Pt       1.40327082       2.41786930      26.84302287      -0.15111403      -0.02549712       0.65497446
Pt       4.18117742       2.41797649      26.84611380       0.11971032       0.23526573       1.29576743
Pt       6.98676739       2.42260278      26.84355598      -0.14706609       0.12355052       0.89936012
Pt       9.76110434       2.41506274      26.85236271       0.17612186       0.02019525       0.79178184
Pt       2.79417353       4.83486727      26.83968141       0.02460572       0.13895066       0.76051903
Pt       5.59470764       4.84756333      26.84597393       0.14064321      -0.01482113       1.27507448
Pt       8.39026146       4.84233730      26.85225908       0.00168793      -0.03122914       0.31801617
Pt      11.16861538       4.85061960      26.84215418       0.18327262      -0.22543794       0.47026742
Pt       4.20516339       7.26119414      26.84579154      -0.13530380      -0.02659498       0.67943281
Pt       6.98908445       7.24969011      26.83732482       0.05511674      -0.01285526       0.94338101
Pt       9.78361109       7.24169627      26.84566184      -0.02780443       0.19004902       1.15013087
Pt      12.56854562       7.26205938      26.84624837       0.06201681       0.15167274       0.70798033
H        5.69339990       9.60343814      28.37101448      -0.05960332       0.01715980       0.68355840
H        2.63957377       0.17434147      28.39797598       0.17999344      -0.19975494      -0.19051182
H        5.55351450       0.16685752      28.37424314      -0.02579819      -0.07193305       0.43157434
H       13.81677534       9.67496959      28.45755012       0.15992083       0.00338897      -1.20931304
H        1.45039347       2.27590331      28.39303110      -0.06616143       0.14482588       0.07521892
H        4.14822953       2.54642744      28.44300938       0.05219031      -0.12626432      -0.64992970
H        6.94420001       2.51664012      28.41400425       0.03593168      -0.07247400      -0.22370605
H        9.74600319       2.41645942      28.42239716       0.02509166      -0.00403612      -0.18570256
H       13.98401643       4.92281634      28.40388191      -0.01479696      -0.06409632      -0.10270890
H        5.79901626       4.96125467      28.43539079      -0.24213572      -0.14843880      -0.68878162
H        8.49093149       4.97217110      28.38132260      -0.03081056      -0.09352826       0.41524914
H       11.25775182       4.88144608      28.38752535      -0.03604481      -0.03256791       0.22939409
H        4.28084044       7.17590196      28.40323530      -0.06978412       0.07452395      -0.02018059
H        7.03899933       7.10969588      28.40517154      -0.02964482       0.16501625      -0.22541223
H        9.81144948       7.19179240      28.43997960      -0.02523924       0.09785131      -0.55172175
H       12.49819372       7.44084243      28.39796004       0.06112618      -0.13535316      -0.03923478
H        5.67930884       9.61726150      18.45323608      -0.05706204       0.03767875      -0.35544887
H        8.34353483       9.60637330      18.41376892       0.07719687       0.08310474       0.53419918
H       11.22210033       9.60712331      18.41740101      -0.10916930      -0.01784474       0.66172874
H       13.90189629       9.61712683      18.42252974       0.15180463       0.06648333       0.62954777
H        1.49812845       2.34033303      18.39062407      -0.13082057       0.11071917       0.67492467
H        4.16319411       2.41886539      18.43169632      -0.05450405       0.04752633       0.36246645
H        7.08229945       2.34034569      18.45176981       0.00377412       0.10626319      -0.15791048
H        9.82329167       2.53677384      18.44055007      -0.02679270      -0.13280547       0.05846072
H       13.92258457       4.94303966      18.43460622       0.02708375      -0.09093659       0.08004051
H        5.53761738       4.76933612      18.42679472       0.04545068       0.09114690       0.26426187
H        8.36481867       4.79555832      18.41821311      -0.02907121       0.02840298       0.26640204
H       10.92121771       4.78464080      18.41422654       0.31259808       0.08431034       0.70448518
H       15.32312935       7.45745164      18.44723430       0.06406315      -0.16336894      -0.02553748
H        7.28049693       7.29057013      18.46986173      -0.24469139      -0.04122636      -0.05043528
H        9.77642027       7.18302294      18.45066961       0.03740081       0.06795067      -0.19939883
H       12.62065123       7.30881574      18.45068327      -0.03998014      -0.05867567      -0.40471944
H        9.02814410       7.30969117      13.59571937      -0.30620041       0.47889963      -0.29972586
H        8.66559321       7.88021256      13.23444250       0.30043292      -0.47845894       0.30693215
H        0.73881426       0.87418559      32.77205029      -0.04364165       0.03520560      -0.06858444
H       11.49527532       1.16636659      32.22044972       0.04883914      -0.04040592       0.05522447
H        5.09294150       7.52350983      14.72107019       0.06573154      -0.07779516       0.01840216
H       15.70641703       8.01111692      14.65425407      -0.06202812       0.03347371       0.00122513
H        2.37918779       2.18049279      36.35176122       0.18400076      -0.11142776       0.02084805
H        1.74656697       2.56181622      36.27592120      -0.18529248       0.10978509      -0.02678473
H       10.80256704       7.36610317       8.80852863       0.76324284      -0.76072752      -0.08945486
H       10.29414566       7.87490916       8.86938750      -0.75947100       0.76392317       0.09454693
H        7.58839226       0.92267861      33.79911547       0.89831835      -0.63869166      -0.05080089
H        7.00004538       1.34006112      33.82746464      -0.89434880       0.63200730       0.03696141
H        4.21364201       7.00603256       1.23578364       0.90251666      -0.76360744       0.25699309
H       14.90292263       7.51336953       1.38648942      -0.50935024       0.70283478       0.71027911
H        8.63511367       2.43599147      38.63379067       0.78689104      -0.34741238      -0.01736318
H        7.99148412       2.77147175      38.63730712      -0.74199551       0.44099361       0.00094154
H        5.99717710       1.47188069      16.85661544       0.89069396      -0.18880384      -0.61024368
H        5.33548196       1.66815745      17.05944090      -1.04649329       0.33848292       0.05446085
H        4.70501129       6.63195581      34.93145128       0.95233923      -0.15999436      -0.27750510
H        4.01912698       6.74837773      35.13045518      -0.95356411       0.16255827       0.27692172
H       13.41617245       9.59154918      16.21297379      -0.73327225       0.19852003       0.83361447
H        7.36141307       0.06461868      16.82580827       0.81862748      -0.35539332      -1.15164506
H       13.61901324       9.67539590      45.02227428      -0.95710301       0.05261763       0.22283316
H        7.28112744       0.01217375      45.21668161       0.92714834       0.00861757      -0.25433972
H        7.71186334       0.81099551      10.93483852      -0.13940883      -1.70999920       0.45166624
H        7.64835397       0.03529229      11.13888910       0.13789085       1.70650887      -0.44841227
H       14.56840523       7.72053150      46.22209883      -0.02775197       0.28960600      -0.54426736
H       14.26809912       7.08325375      46.42617741      -0.32526952      -0.28438511      -0.38775453
H        6.67646345       9.60529170       2.50763106      -0.00833295       0.34156698       0.05117190
H        6.65635442       8.88205405       2.37674425      -0.02134993      -0.52129042      -0.10030543
H        5.69120724       2.16794377      39.98932784      -0.95947045       2.19343758      -0.31762049
H        5.96163716       1.53535715      40.08482652       0.92419904      -2.19801188       0.33535519
H       12.28965376       2.50601514       3.19336010       0.19768931      -0.53254622      -0.15109114
H        1.35239286       1.80572361       2.99787009      -0.17821527       0.70688397       0.19580393
H        8.99065761       0.74110993      30.72245851      -0.03443941       0.09853496       0.16088474
H        9.25352083       0.19246403      30.29142884       0.07298231      -0.08002482       0.01850295
H        4.61621123       5.27854170       7.92016157       0.21010080      -0.28962991      -0.58806145
H        4.84996782       4.95556735       7.26447676      -0.21027666       0.28974459       0.58879679
H        9.58931197       8.91644795      32.66755867       0.02904036      -0.24026756      -0.39183950
H        9.63765711       8.50890734      32.02599908      -0.03125433       0.24919699       0.36928347
H        2.80644037       4.37664608      14.46356902       0.15275851       0.09508223       0.44984898
H        2.57230422       4.23510547      13.77970001      -0.14839277      -0.08947723      -0.43112981