144
Lattice="11.174675241468789 0.0 0.0 5.587337620734394 9.677552638152974 0.0 0.0 0.0 46.84306309572773" Properties=species:S:1:pos:R:3:forces:R:3 energy=38.37479245587306 pbc="T T T"
Pt       0.00433733       0.00555053      19.98757634       0.01069039      -0.13632582      -0.93069363
Pt       8.38774019       9.67110622      20.00889265      -0.07647747       0.15383348      -0.95582157
Pt      11.17735006       9.67705826      20.00608599      -0.00051088      -0.06270330      -0.13626307
Pt      13.95802526       9.66885675      20.00583312       0.10982391       0.10770044      -0.46986553
Pt      12.55834897       2.42915449      19.98380252       0.28069019      -0.14023235      -1.04407370
Pt       4.18564392       2.42135628      20.00703484      -0.09059128      -0.01314682      -0.69133472
Pt       6.97692304       2.42235507      19.98362551       0.20915669      -0.09535168      -0.48155558
Pt       9.78751013       2.40924849      20.00041583      -0.08038632       0.21438400      -0.94977534
Pt       2.80354262       4.83063123      19.99498495      -0.25732219       0.19501871      -0.87383604
Pt       5.58153935       4.86390419      20.00186300       0.04540106      -0.30207020      -0.92544782
Pt       8.36596679       4.83811310      19.99186191       0.02344666      -0.08532875      -0.78484887
Pt      11.16266640       4.84848097      20.00234294      -0.13015696      -0.06750406      -0.77775800
Pt       4.19413756       7.24748881      19.99138634      -0.03081647       0.47085440      -1.55039001
Pt       6.99872427       7.26265583      20.00442004       0.11688416       0.02269487      -0.99189621
Pt       9.76756307       7.28213780      19.99533323       0.26895079      -0.30570984      -0.66088492
Pt      12.57870567       7.25697673      19.98188425      -0.10384507      -0.08628854      -0.42127013
Pt       1.39939311       0.79636909      22.27645536       0.02654407       0.14338246       0.29987705
Pt       4.19349072       0.79803866      22.28134761      -0.10864506       0.12290440       0.23177341
Pt       6.97286257       0.80041826      22.28072230       0.16894668       0.09801586       0.29577947
Pt       9.77764275       0.80943474      22.27299956       0.01668081       0.03061927       0.31633648
Pt       2.79196510       3.22709607      22.29036635       0.02963839      -0.08249205       0.14749674
Pt       5.59725379       3.21503879      22.27577432      -0.11220860       0.17415780       0.25679538
Pt       8.37552416       3.22133765      22.28017284       0.06194457       0.01775270       0.25765309
Pt      11.18543821       3.21493327      22.29030629      -0.11307687       0.09363907       0.17223719
Pt       4.17611335       5.65184089      22.26660679       0.24218997      -0.07122316       0.38724828
Pt       6.99214874       5.64993184      22.27520713      -0.19259647      -0.09025036       0.31489125
Pt       9.77160911       5.64543155      22.27550600       0.10789198       0.01880145       0.39127180
Pt      12.57721827       5.64158705      22.29913684      -0.13614480       0.07353561      -0.16831985
Pt       5.59410876       8.07350787      22.28222785      -0.03856964      -0.14014518       0.12349190
Pt       8.37590092       8.05742192      22.27672003       0.10283437       0.06676333       0.50952816
Pt      11.18475934       8.07043682      22.29142142      -0.05017148      -0.23746428       0.06954115
Pt      13.98710352       8.07624381      22.27913244      -0.16395515      -0.14601065       0.30749652
Pt      11.18503980       1.61395772      24.56996677      -0.22439253      -0.01355126      -0.25540748
Pt       2.78990714       1.61786528      24.57182194       0.08254424      -0.07709710      -0.48511168
Pt       5.58212654       1.60551098      24.56002259       0.08510712       0.13254887      -0.20500281
Pt       8.37490628       1.62340322      24.56516006       0.11593156      -0.16166532      -0.33437070
Pt      12.56981333       4.02813975      24.56417343      -0.05521573      -0.03876915      -0.12993354
Pt       4.19940005       4.02091299      24.56388250      -0.00208131       0.15439270      -0.22465555
Pt       6.99410135       4.04300926      24.56841362      -0.16243178      -0.10828279      -0.34779674
Pt       9.76248002       4.04019297      24.56977627       0.16273311      -0.07948052      -0.29111317
Pt      13.94900088       6.44729483      24.55903745       0.29353568       0.04099136      -0.07596299
Pt       5.58356641       6.45448444      24.55576136      -0.09840898      -0.08386914      -0.38793066
Pt       8.36595654       6.45009483      24.56958043       0.26685715       0.12186439      -0.47690240
Pt      11.18625610       6.44336881      24.56446582      -0.23291266       0.05030981      -0.32106602
Pt      15.37335837       8.85390208      24.55851467      -0.12238606       0.25277391      -0.05338074
Pt       6.98796618       8.87649084      24.57045275       0.01636507      -0.06260431      -0.34609520
Pt       9.78192662       8.87896875      24.55172819      -0.14470838      -0.22208728      -0.00669901
Pt      12.56432822       8.86489627      24.55356650       0.10597137       0.06986614      -0.18781242
Pt       5.60397131       9.67336969      26.85351278      -0.11412845      -0.05931381       0.75075936
Pt       8.38897821       9.66923091      26.84240042      -0.17779283       0.11659054       1.04789126
Pt       5.57035117       0.00531764      26.84556763       0.01409942       0.15343830       1.15744853
Pt       8.36542389       0.00714468      26.82508511       0.02536573      -0.15641333       0.89973837
Pt       1.40520562       2.41708750      26.84265915      -0.19001380      -0.04744508       0.82379466
Pt       4.17824378       2.41743204      26.84628646       0.16912127       0.25720805       0.84027773
Pt       6.98743456       2.42336040      26.84404701      -0.20451045       0.16261663       0.93612176
Pt       9.75557214       2.41318669      26.85569672       0.24491894       0.04275462       0.74648750
Pt       2.79444133       4.83354730      26.83902876       0.02774915       0.18363000       0.75152814
Pt       5.59645109       4.85105571      26.84771943       0.13277616      -0.07408326       0.95572156
Pt       8.39383630       4.84423769      26.85510284       0.05696331       0.00352395       1.02545273
Pt      11.16747674       4.85469409      26.84271305       0.25958681      -0.29754481       0.71307546
Pt       4.20926805       7.26164507      26.84696056      -0.16309460      -0.03239487       0.82816088
Pt       6.99098649       7.24712076      26.83607692       0.06100200       0.01245520       0.73077005
Pt       9.78580344       7.23646536      26.84729308      -0.05318765       0.27953911       0.74844897
Pt      12.56706714       7.26376650      26.84715186       0.07470341       0.23724368       1.12491560
H        5.72302091       9.58554713      28.41695595      -0.14195524       0.06130822      -0.16176020
H        2.58147389       0.22809863      28.39533145       0.26678747      -0.28520170      -0.34740981
H        5.54475357       0.21534987      28.42918214      -0.01912978      -0.21320078      -0.56249470
H        8.18335543       0.00049625      28.38823589       0.14704603       0.00975965      -0.32529497
H        1.46806529       2.22538760      28.39677926      -0.09575432       0.21902664      -0.08290728
H        4.13057845       2.58331321      28.40688124       0.05824449      -0.11560709      -0.15216124
H        6.92458945       2.53877586      28.41519777       0.05760557      -0.09146083      -0.26455188
H        9.75252450       2.42484986      28.42372586       0.01532635      -0.01710684      -0.15328763
H       13.98647837       4.94583380      28.40172281      -0.01580509      -0.08239975      -0.09959863
H        5.85413338       4.97785196      28.40634385      -0.25733146      -0.14624384      -0.36270478
H        8.53419106       4.99901694      28.42214256      -0.10641308      -0.18237659      -0.32425290
H       11.29094019       4.89140838      28.40023262      -0.06966534      -0.04308064      -0.02708117
H        4.30632358       7.15833211      28.41201353      -0.09656344       0.10045455      -0.18340349
H        7.06002174       7.06146088      28.38431996      -0.03279288       0.18970835       0.01584134
H        9.81557897       7.18056237      28.41453106      -0.01750227       0.10097674      -0.14083810
H       12.48360146       7.48606817      28.42176011       0.09125617      -0.22302085      -0.48481342
H        5.70221124       9.59953380      18.41424917      -0.11159772       0.08419798       0.30115461
H        8.34103035       9.59263799      18.43715377       0.08392416       0.08946437       0.21646479
H       11.23030657       9.56862778      18.48156858      -0.08132734      -0.01688392      -0.42766115
H       13.89972570       9.60417686      18.46096579       0.12809339       0.05878211      -0.02111364
H        1.52642280       2.32948922      18.40412108      -0.15153132       0.11647150       0.46743149
H        4.14890598       2.42859405      18.44366511      -0.03136078       0.03053751       0.17004301
H        7.10251777       2.31461233      18.43618271      -0.03256174       0.13397634       0.09961406
H        9.83286868       2.57841443      18.42952888      -0.03866631      -0.20345861       0.30072215
H       13.91304304       4.96548765      18.42532417       0.03918259      -0.12372535       0.24541825
H        5.53248246       4.74752863      18.43230651       0.04833546       0.11424620       0.21080656
H        8.35940609       4.78402599      18.42243254      -0.04018249       0.03348785       0.17394543
H       10.85262631       4.76085871      18.46078144       0.30502003       0.09536248       0.19861491
H       15.31205059       7.51086826      18.38689266       0.10922562      -0.34489295       0.92041439
H        7.35884206       7.31189546      18.46850791      -0.35766852      -0.07234494       0.21664143
H        9.78304060       7.15640646      18.43573553       0.04282584       0.11019363       0.06875028
H       12.62798623       7.32284926      18.42987720      -0.05616601      -0.08592088      -0.07389351
H        9.01131913       7.29167726      13.57172869       0.50718588      -0.90216058       0.42900300
H        8.68368655       7.87272753      13.29754870      -0.51291251       0.90296459      -0.42188028
H        0.73484058       0.87433626      32.75077445       0.35607597      -0.19735558       0.40771246
H       11.46277429       1.12773934      32.22589364      -0.34878433       0.19279291      -0.41986066
H        5.06590884       7.52590983      14.70679096       0.31590864      -0.31328559       0.06389938
H       15.70139143       8.02063489      14.61426716      -0.31139636       0.26291716      -0.04465801
H        2.38445627       2.20188586      36.34148440      -0.11530524       0.06471518      -0.01854922
H        1.73521623       2.56794015      36.24337672       0.11390194      -0.06604959       0.01303318
H       10.81488355       7.36770688       8.81709230      -0.05937526       0.07212665       0.01229990
H       10.32928985       7.93367097       8.90243477       0.06305759      -0.06903695      -0.00724768
H        7.56102524       0.88172576      33.79047994       0.02488931      -0.02025669      -0.00921329
H        6.95735960       1.32114194      33.83348685      -0.02134453       0.01281258      -0.00480488
H        4.21109707       6.95571898       1.34655289      -0.00166093       0.16265237       0.33052126
H       14.96684441       7.55913961       1.49901200       0.24295589      -0.19942994       0.25136521
H        8.64775447       2.37872531      38.65696792       0.01001188       0.07085138      -0.01872509
H        8.01165560       2.76468366      38.58661544       0.04277313       0.03632172      -0.00147813
H        6.01212285       1.45506574      16.83321631       0.00482879       0.06331625      -0.30955777
H        5.31924167       1.64181576      17.02085457      -0.18790112       0.07362920      -0.19062290
H        4.72443067       6.63514750      34.91633522       0.11659774      -0.01057341      -0.03419568
H        4.01086486       6.71007416      35.11666431      -0.11808101       0.01283521       0.03335492
H       13.34937892       9.62344070      16.17441914      -0.10692756      -0.00361240       0.13043028
H        7.41742217       0.06509919      16.83612317       0.20797810      -0.15748110      -0.41759115
H        7.97509017       0.01956526      45.07984690       0.95218527       0.07258585      -0.18413265
H       12.84955329       9.67098531      45.19962075      -0.98462230      -0.00727519       0.15178689
H        7.69619185       0.77429584      11.00143290       0.06178644       1.43387556      -0.26073226
H        7.66612448       0.07283524      11.12987477      -0.06354842      -1.43772960       0.26355687
H       14.55088228       7.72282333      46.20716809       0.03280419       0.20368718      -0.31985220
H       14.19292791       7.09413272      46.34690642      -0.23327595      -0.22817180      -0.22698189
H        6.68150885       9.55227227       2.56166191       0.01223742       0.21969923       0.05716771
H        6.62101994       8.83959371       2.37724076      -0.03658166      -0.37019750      -0.09658761
H        5.65212897       2.20053321      39.95931251       0.31176016      -0.63036412       0.14130810
H        6.00798270       1.53310921      40.09337834      -0.35344726       0.62676507      -0.12093982
H       12.28359527       2.50081205       3.16708619      -0.34040818       1.08686733       0.20764746
H        1.32846620       1.82680572       3.03948484       0.35496446      -0.94013166      -0.17220427
H        9.02306776       0.71661457      30.75138290      -0.13206215       0.28287974       0.31416133
H        9.27338233       0.19246947      30.29506125       0.15627244      -0.27098888      -0.16979927
H        4.58543043       5.25873680       7.89281875      -0.31816941       0.43426397       0.85989290
H        4.81261820       4.94905777       7.27997729       0.31818098      -0.43428713      -0.85924786
H        9.63967192       8.90896201      32.68221593       0.00727597       0.10945959       0.13949624
H        9.61460416       8.47326176      32.07944250      -0.00836483      -0.10037871      -0.15957938
H        2.81593870       4.35313202      14.44148162       0.07023046       0.05051370       0.18139315
H        2.55001023       4.17140481      13.77117413      -0.06579865      -0.04512544      -0.16276626
H        8.85679381       8.10894514      42.89145910       0.06170442      -0.00432485       0.16639435
H        8.60148001       8.12877741      42.19360490      -0.06004452       0.00571762      -0.16728009
H       10.05928625       0.94177259      15.40030735       0.03948418       0.01616658       0.20213424
H        9.95692222       0.99225988      14.66549189      -0.01849292       0.04337734      -0.18160191
H       13.68191978       9.60913292      38.86423664       0.03432886      -0.05117241       0.04659354
H       13.19961108       9.51577069      38.30351201      -0.04607906      -0.05439246      -0.05242968
144
Lattice="11.174675241468789 0.0 0.0 5.587337620734394 9.677552638152974 0.0 0.0 0.0 46.84306309572773" Properties=species:S:1:pos:R:3:forces:R:3 energy=38.32172419815029 pbc="T T T"
Pt       0.00000000       0.00000000      20.00000000      -0.00707722       0.00011004      -0.49200094
Pt       2.79366881       0.00000000      20.00000000       0.00807558       0.00309304      -0.49352792
Pt       5.58733762       0.00000000      20.00000000      -0.00075282      -0.05314882      -0.45362312
Pt       8.38100643       0.00000000      20.00000000       0.01844073       0.01163707      -0.49644074
Pt       1.39683441       2.41938816      20.00000000      -0.00019746      -0.00168999      -0.49332249
Pt       4.19050322       2.41938816      20.00000000      -0.04064915       0.01960518      -0.43514511
Pt       6.98417203       2.41938816      20.00000000       0.06276218       0.02363975      -0.45281965
Pt       9.77784084       2.41938816      20.00000000      -0.00737007      -0.00673141      -0.49300754
Pt      13.96834405       4.83877632      20.00000000       0.00336223       0.00126344      -0.49250591
Pt       5.58733762       4.83877632      20.00000000       0.00077724      -0.00994323      -0.49226269
Pt       8.38100643       4.83877632      20.00000000      -0.00481953      -0.00148661      -0.49570641
Pt      11.17467524       4.83877632      20.00000000       0.00023011       0.00000951      -0.49424887
Pt       4.19050322       7.25816448      20.00000000      -0.00484524       0.00507382      -0.49307901
Pt       6.98417203       7.25816448      20.00000000       0.00116934      -0.00101327      -0.49392027
Pt       9.77784084       7.25816448      20.00000000       0.00026148       0.00319125      -0.49279207
Pt      12.57150965       7.25816448      20.00000000       0.00088343       0.00360443      -0.49171710
Pt       1.39683441       0.80646272      22.28102103      -0.00012856      -0.00348667       0.26474446
Pt       4.19050322       0.80646272      22.28102103      -0.00036998      -0.00041652       0.25788528
Pt       6.98417203       0.80646272      22.28102103      -0.00146656      -0.00046100       0.26241067
Pt       9.77784084       0.80646272      22.28102103       0.00305756       0.00147890       0.27700990
Pt       2.79366881       3.22585088      22.28102103      -0.00756213       0.00415850       0.27954167
Pt       5.58733762       3.22585088      22.28102103       0.00042989      -0.00023268       0.25435102
Pt       8.38100643       3.22585088      22.28102103       0.01033558       0.00548262       0.28573802
Pt      11.17467524       3.22585088      22.28102103      -0.00235847      -0.00087160       0.26507869
Pt       4.19050322       5.64523904      22.28102103       0.00337843       0.00145164       0.26544535
Pt       6.98417203       5.64523904      22.28102103      -0.00109323       0.00048774       0.26649332
Pt       9.77784084       5.64523904      22.28102103      -0.00165579       0.00263384       0.26315269
Pt      12.57150965       5.64523904      22.28102103      -0.00081350       0.00084024       0.26698980
Pt       5.58733762       8.06462720      22.28102103       0.00003214      -0.00011313       0.26777220
Pt       8.38100643       8.06462720      22.28102103       0.00099862      -0.00027202       0.26462206
Pt      11.17467524       8.06462720      22.28102103      -0.00215073      -0.01045385       0.27837104
Pt      13.96834405       8.06462720      22.28102103       0.00023114      -0.00064303       0.27057984
Pt      11.17467524       1.61292544      24.56204206       0.00233302       0.00415130      -0.26478302
Pt       2.79366881       1.61292544      24.56204206      -0.00120662       0.00283876      -0.26619405
Pt       5.58733762       1.61292544      24.56204206      -0.00064200       0.00062221      -0.26829541
Pt       8.38100643       1.61292544      24.56204206       0.00018101       0.00134803      -0.26899835
Pt      12.57150965       4.03231360      24.56204206      -0.00611897       0.00212707      -0.25594100
Pt       4.19050322       4.03231360      24.56204206      -0.00175066      -0.00187562      -0.26844865
Pt       6.98417203       4.03231360      24.56204206      -0.00089552      -0.00232788      -0.27053356
Pt       9.77784084       4.03231360      24.56204206       0.00892327       0.00419090      -0.26112640
Pt      13.96834405       6.45170176      24.56204206      -0.00202320      -0.00201652      -0.26742637
Pt       5.58733762       6.45170176      24.56204206      -0.00172341       0.00061269      -0.26774159
Pt       8.38100643       6.45170176      24.56204206       0.00223917      -0.00165425      -0.26813856
Pt      11.17467524       6.45170176      24.56204206       0.00174372      -0.00793648      -0.25858435
Pt      15.36517846       8.87108992      24.56204206       0.00142156      -0.00051242      -0.26973394
Pt       6.98417203       8.87108992      24.56204206      -0.00041832       0.00108629      -0.26828229
Pt       9.77784084       8.87108992      24.56204206       0.00227800       0.00184220      -0.26971593
Pt      12.57150965       8.87108992      24.56204206      -0.00390988      -0.00200263      -0.27595294
Pt       0.00000000       0.00000000      26.84306310       0.00161542      -0.00250374       0.48851377
Pt       2.79366881       0.00000000      26.84306310      -0.00031445      -0.00109915       0.49184668
Pt       5.58733762       0.00000000      26.84306310       0.00342934       0.00213710       0.49202615
Pt       8.38100643       0.00000000      26.84306310      -0.01311571      -0.01363019       0.49649575
Pt       1.39683441       2.41938816      26.84306310      -0.00296088      -0.00279068       0.49176544
Pt       4.19050322       2.41938816      26.84306310      -0.00001183      -0.00029671       0.49319291
Pt       6.98417203       2.41938816      26.84306310       0.00208259      -0.00310975       0.49144995
Pt       9.77784084       2.41938816      26.84306310       0.00268063       0.00408420       0.49369994
Pt      13.96834405       4.83877632      26.84306310      -0.00011878       0.00021932       0.49475718
Pt       5.58733762       4.83877632      26.84306310       0.00141154       0.00154061       0.49256480
Pt       8.38100643       4.83877632      26.84306310      -0.00072942       0.00093485       0.49557683
Pt      11.17467524       4.83877632      26.84306310      -0.00070962       0.00012856       0.48006073
Pt       4.19050322       7.25816448      26.84306310       0.00231888       0.00587369       0.49099514
Pt       6.98417203       7.25816448      26.84306310      -0.00195250       0.00038772       0.49276996
Pt       9.77784084       7.25816448      26.84306310      -0.00257290      -0.00045997       0.49446201
Pt      12.57150965       7.25816448      26.84306310       0.00264361       0.00170413       0.49467310
H        0.00000000       0.00000000      28.39300000       0.01032915       0.00073122       0.18278745
H        2.79366881       0.00000000      28.39300000       0.00003908       0.00022214       0.19651020
H        5.58733762       0.00000000      28.39300000       0.00073225      -0.00040906       0.19674289
H        8.38100643       0.00000000      28.39300000      -0.03908797      -0.01345304       0.01968822
H        1.39683441       2.41938816      28.39300000       0.00040186      -0.00172084       0.19360819
H        4.19050322       2.41938816      28.39300000      -0.00049108      -0.00055176       0.18845339
H        6.98417203       2.41938816      28.39300000       0.00088369      -0.00098910       0.19147058
H        9.77784084       2.41938816      28.39300000       0.00149767       0.00457708       0.17034023
H       13.96834405       4.83877632      28.39300000       0.00105698      -0.00042912       0.18628596
H        5.58733762       4.83877632      28.39300000      -0.00026817      -0.00032216       0.18744116
H        8.38100643       4.83877632      28.39300000      -0.00100530      -0.00006094       0.18846059
H       11.17467524       4.83877632      28.39300000       0.00026122       0.00011056       0.18950291
H        4.19050322       7.25816448      28.39300000       0.00018666      -0.00252277       0.19314283
H        6.98417203       7.25816448      28.39300000       0.00085875       0.00051242       0.19137339
H        9.77784084       7.25816448      28.39300000      -0.00055844       0.00156760       0.19413528
H       12.57150965       7.25816448      28.39300000      -0.00014450       0.00190262       0.19092087
H        0.00000000       0.00000000      18.45000000       0.00006711      -0.00159768      -0.20319095
H        2.79366881       0.00000000      18.45000000      -0.00091814      -0.00120919      -0.19468780
H        5.58733762       0.00000000      18.45000000      -0.03179529      -0.08467980       0.00348770
H        8.38100643       0.00000000      18.45000000       0.05939737       0.00087546       0.07346310
H        1.39683441       2.41938816      18.45000000      -0.00092894       0.00065692      -0.19508992
H        4.19050322       2.41938816      18.45000000      -0.09097129       0.05485809      -0.04728311
H        6.98417203       2.41938816      18.45000000       0.07928871       0.06540065       0.02291265
H        9.77784084       2.41938816      18.45000000       0.00040186       0.00032756      -0.20272945
H       13.96834405       4.83877632      18.45000000      -0.00070577       0.00084718      -0.19919366
H        5.58733762       4.83877632      18.45000000       0.00050342      -0.00032113      -0.19551030
H        8.38100643       4.83877632      18.45000000       0.00016918      -0.00056564      -0.19067766
H       11.17467524       4.83877632      18.45000000       0.00020132      -0.00040161      -0.18908614
H        4.19050322       7.25816448      18.45000000       0.00061269       0.00101481      -0.20207433
H        6.98417203       7.25816448      18.45000000      -0.00191419       0.00089552      -0.19274405
H        9.77784084       7.25816448      18.45000000      -0.00015452      -0.00036484      -0.19229333
H       12.57150965       7.25816448      18.45000000       0.00190956      -0.00534095      -0.18616974
H        9.02914327       7.45704776      13.59870160       0.20209232      -0.22467767       0.31726336
H        8.68419985       7.83642678      13.06907974      -0.20744357       0.22475146      -0.31117910
H        0.76218309       0.87158022      32.78403309       0.21999183      -0.23806643       0.32770050
H       11.59191491       1.25095923      32.25441123      -0.21971440       0.23183279      -0.34347472
H        5.14883616       7.49517789      14.78695612       0.37108094      -0.28590336       0.02208963
H       15.72970280       7.93172383      14.77170135      -0.37127298       0.25978172       0.00215561
H        2.37928623       2.13947748      36.36794657       0.34657291      -0.25509974       0.00768554
H        1.78547763       2.57602342      36.35269181      -0.34725219       0.25354397      -0.01333837
H       10.77531778       7.33612778       8.78389599       0.35405046      -0.23997265      -0.00515172
H       10.16724617       7.75266213       8.79661487      -0.35123998       0.24254067       0.00988949
H        7.71734481       0.99144254      33.83125625       0.37287170      -0.25526533      -0.01598481
H        7.10927321       1.40797689      33.84397513      -0.36757112       0.24925870       0.00287835
H        4.27109374       7.11951923       1.01219122       0.48909843      -0.10570603       0.98189592
H       14.78437508       7.39688467       1.18260317       0.29370177      -0.01091511       1.07735169
H        8.57641991       2.57681761      38.58673332       0.37167126      -0.11251971      -0.10084973
H        7.91502601       2.85418305      38.75714528      -0.32809979       0.17838521       0.08266843
H        5.99876321       1.54819791      16.86850872       0.24185598      -0.01850140      -0.41753280
H        5.32377852       1.74961672      17.08585599      -0.34403470       0.10920710      -0.18432780
H        4.67235061       6.61991985      34.96187355       0.39263397      -0.11580867      -0.12761775
H        3.99736591       6.82133865      35.17922082      -0.39429927       0.11877263       0.12707165
H       13.54883333       9.54237956      16.36715679       0.34618905      -0.10136010      -0.32698342
H       12.90266598       9.67204562      16.69741151      -0.30864912      -0.02868966       0.01645146
H       13.67875924       9.62186774      44.89471742       0.34010196      -0.04310198      -0.19948548
H        7.44525427       0.07398116      45.22497213      -0.36635575       0.09715660       0.17122802
H        7.76835642       0.75237025      10.79710547       0.08196395       0.38403413      -0.17267196
H        7.62828152       0.09266759      11.09473801      -0.08370664      -0.38740075       0.17446376
H       14.57791388       7.71140257      46.18429561      -0.33956975       0.09633718      -0.97199816
H       14.43783898       7.05169990      46.48192815      -0.40846014      -0.02789081      -1.05536389
H        1.05770285       0.06227477       2.36668307      -0.10547360       0.21387492      -0.05329100
H        6.78079978       9.01530966       2.37424257       0.06476481      -0.45641455      -0.02260566
H        5.75930655       2.16783314      40.08088817      -0.10129967       0.40163770       0.01348364
H        5.89506585       1.44331539      40.08844766       0.06014736      -0.40941608       0.00963161
H       12.32028391       2.43598234       3.24085074      -0.14105022       0.38636357       0.18366393
H        1.42093515       1.83235019       2.91954517       0.17242128      -0.14945953      -0.11240787
H        8.93009377       0.82013652      30.65044489      -0.16325067       0.38023764       0.28508034
H        9.20542025       0.21650437      30.32913932       0.19480915      -0.35962486      -0.09402345
H        4.74223211       5.25418833       7.94799281      -0.11151209       0.14683314       0.38005382
H        4.93740873       4.99800375       7.28490212       0.11156120      -0.14676990      -0.38020730
H        9.45360091       8.92236646      32.58358960      -0.12404468       0.16440587       0.40531155
H        9.64877753       8.66618188      31.92049891       0.11961544      -0.15603358      -0.42927888
H        2.80651730       4.44555004      14.51509155       0.09354857       0.02008880       0.45144975
H        2.65814435       4.42041271      13.79344946      -0.08829580      -0.01346847      -0.43187132