144
Lattice="11.174675241468789 0.0 0.0 5.587337620734394 9.677552638152974 0.0 0.0 0.0 46.84306309572773" Properties=species:S:1:pos:R:3:forces:R:3 energy=38.75152600306606 pbc="T T T"
Pt       0.00294734       0.00314364      19.99316253      -0.04932919      -0.04767340       0.13289930
Pt       8.38479549       9.67426378      20.00481466      -0.04673186       0.07317463      -1.25071478
Pt      11.17630486       9.67707141      20.00340716       0.02774812      -0.10439683      -1.50307786
Pt      13.96242105       9.67218888      20.00394262       0.04230339       0.05654422      -1.24939430
Pt      12.56303322       2.42448236      19.99094301       0.17700659      -0.08981609      -1.20419502
Pt       4.18795086       2.42088460      20.00458986      -0.07842097      -0.00219212      -0.82293922
Pt       6.97950764       2.42148200      19.99076573       0.13946667      -0.02299364       0.04460556
Pt       9.78339105       2.41387759      20.00016840      -0.05512497       0.09528200      -0.57938093
Pt       2.79863004       4.83433366      19.99698083      -0.13480990       0.09566510      -0.55635387
Pt       5.58454310       4.85324074      20.00086149       0.00977533      -0.16772594      -0.82725608
Pt       8.37238502       4.83973050      19.99534328       0.01808308      -0.06250815      -0.90448821
Pt      11.16814092       4.84418459      20.00238924      -0.15248135      -0.04929833      -1.38815486
Pt       4.19238871       7.25204047      19.99575511       0.02620520       0.12617895       0.15290095
Pt       6.99261713       7.26119609      20.00261010       0.02640292      -0.01364999      -0.50002331
Pt       9.77269015       7.27157230      19.99788178       0.14545323      -0.14510150      -0.29706091
Pt      12.57576643       7.25714362      19.98945171      -0.07038189      -0.05680184      -0.06458277
Pt       1.39822566       0.80077428      22.27886704       0.02886552       0.08705576       0.29430649
Pt       4.19190744       0.80158661      22.28092440      -0.05565153       0.05303184       0.20488146
Pt       6.97660595       0.80303440      22.28062343       0.10446470       0.04088286       0.26354197
Pt       9.77852498       0.80833054      22.27527310      -0.01652808       0.01318899       0.32122955
Pt       2.79276554       3.22656912      22.28681082       0.00895490      -0.04245869       0.18082467
Pt       5.59294065       3.21971942      22.27893397      -0.07323428       0.11595162       0.24510637
Pt       8.37853483       3.22373903      22.27981398       0.02843460       0.00821879       0.29334953
Pt      11.18010578       3.22047546      22.28603089      -0.04505576       0.05540214       0.18728097
Pt       4.18192281       5.64938843      22.27292646       0.15835811      -0.06930538       0.36083791
Pt       6.98904379       5.64808512      22.27767947      -0.11546516      -0.05675968       0.29473200
Pt       9.77427521       5.64536541      22.27826794       0.06038262       0.00906880       0.32224900
Pt      12.57477371       5.64346404      22.29125871      -0.08977959       0.03670841       0.02356699
Pt       5.59185243       8.06957211      22.28128016      -0.03186240      -0.08135562       0.23579280
Pt       8.37751775       8.06054261      22.27778301       0.06202273       0.04429523       0.42148817
Pt      11.18024648       8.06749244      22.28699411      -0.02151936      -0.11719938       0.14858174
Pt      13.97950439       8.07124395      22.27904599      -0.10016505      -0.07257891       0.31753179
Pt      11.17982194       1.61290464      24.56657635      -0.12069710       0.01348158      -0.28563082
Pt       2.79172339       1.61605434      24.56770072       0.05815579      -0.04743351      -0.37452364
Pt       5.58467009       1.60868705      24.56069722       0.04279396       0.08893009      -0.23220663
Pt       8.37728899       1.61831599      24.56456884       0.06239451      -0.10449170      -0.30164313
Pt      12.57037998       4.03014361      24.56309950      -0.03272012      -0.02896297      -0.19011509
Pt       4.19489714       4.02515497      24.56314495       0.00981159       0.08227145      -0.19683647
Pt       6.99084289       4.03858064      24.56617221      -0.11928532      -0.07594679      -0.33992788
Pt       9.76967478       4.03655726      24.56580196       0.09673339      -0.05734229      -0.29409850
Pt      13.95745858       6.44920976      24.56024798       0.16523968       0.02291881      -0.17732771
Pt       5.58493781       6.45325327      24.55808815      -0.05369287      -0.05738111      -0.33445349
Pt       8.37172773       6.45036935      24.56683014       0.16765934       0.09018376      -0.39541179
Pt      11.18105893       6.44602824      24.56357684      -0.13819706       0.04439858      -0.30662748
Pt      15.37008723       8.86124703      24.56004334      -0.10359412       0.15086026      -0.14563449
Pt       6.98591207       8.87378946      24.56714545       0.03144999      -0.03524314      -0.33657414
Pt       9.78012443       8.87554425      24.55642815      -0.09586745      -0.14159812      -0.13372360
Pt      12.56747137       8.86742103      24.55748040       0.07734521       0.03812664      -0.24147289
Pt       5.59715506       9.67491454      26.84896519      -0.12733415       0.01934241      -0.62123770
Pt       8.38586634       9.67308092      26.84258597      -0.07622164       0.04256513       0.67465341
Pt       5.57811120       0.00336519      26.84540272       0.01890044      -0.03323768      -0.40420315
Pt       8.37118140       0.00428951      26.83224071      -0.03999865      -0.10319715       1.88962853
Pt       1.40180886       2.41801382      26.84319077      -0.11906600      -0.01664069       0.59202176
Pt       4.18344859       2.41808353      26.84583033       0.08948623       0.18842125       1.40989482
Pt       6.98618465       2.42185411      26.84343301      -0.10603179       0.09098183       0.80705780
Pt       9.76542277       2.41649929      26.84988386       0.12725265       0.01280101       0.74534565
Pt       2.79403544       4.83578494      26.84052606       0.01831191       0.09975521       0.65688193
Pt       5.59317219       4.84535296      26.84448228       0.11429403      -0.00096262       1.36391866
Pt       8.38782106       4.84132742      26.85033888      -0.02320986      -0.05259655      -0.23995876
Pt      11.16983285       4.84760771      26.84209434       0.13693054      -0.17194383       0.37697902
Pt       4.20188952       7.26061482      26.84484012      -0.10850468      -0.01807640       0.58738089
Pt       6.98758932       7.25163474      26.83845567       0.04420138      -0.01013966       0.97958678
Pt       9.78211728       7.24554380      26.84433102      -0.01696363       0.13550435       1.25660181
Pt      12.56969800       7.26108912      26.84556427       0.05280635       0.08626901       0.32035768
H        5.66761939       9.61970005      28.34240682      -0.01387907      -0.00672832       1.31695020
H        2.68286282       0.13150382      28.39282275       0.11501368      -0.13292244       0.02623451
H        5.56171426       0.12937272      28.34536029      -0.02634275      -0.00397570       1.10469592
H       13.85355743       9.67562943      28.48313244       0.11826047      -0.00426855      -1.45314372
H        1.43457357       2.31194166      28.39322579      -0.04568722       0.10176967       0.12703821
H        4.16048309       2.51552434      28.45439259       0.03923092      -0.10348537      -0.78010285
H        6.95465055       2.49375188      28.40935621       0.02423291      -0.05095181      -0.12685850
H        9.74761646       2.41808184      28.41634566       0.02500681      -0.00177072      -0.12427017
H       13.97903570       4.90146020      28.39910177      -0.00962235      -0.04254328       0.01022219
H        5.75025293       4.93683431      28.44594396      -0.19375989      -0.12215415      -0.77019662
H        8.45987856       4.94688399      28.35493346       0.00383249      -0.03607181       0.99082637
H       11.23648556       4.86959965      28.38365520      -0.02355079      -0.02341067       0.32329440
H        4.26121242       7.19453998      28.39813370      -0.05254641       0.05331157       0.08161068
H        7.02303357       7.14980195      28.41259353      -0.02087890       0.12448203      -0.27742565
H        9.80616002       7.20259085      28.44611491      -0.02435529       0.08388019      -0.64970011
H       12.50949932       7.40101734      28.37856348       0.03895659      -0.07184074       0.37110251
H        5.66159247       9.63136148      18.47809065      -0.02587096       0.01158385      -0.84511012
H        8.34843035       9.62609572      18.40915129       0.06253463       0.05890938       0.56667453
H       11.21272803       9.62967875      18.38389104      -0.10679463      -0.04427337       1.11767638
H       13.90919828       9.63138309      18.40665234       0.15191312       0.05452231       0.86573625
H        1.47265661       2.35655091      18.39603248      -0.09541647       0.08573010       0.60415274
H        4.16860880       2.41521476      18.43169585      -0.06474064       0.05523013       0.34052232
H        7.05878448       2.35959738      18.46857836       0.03224627       0.08377580      -0.47304907
H        9.81329611       2.50538042      18.44766802      -0.01830163      -0.08868019      -0.10633801
H       13.93265524       4.92300332      18.44486892       0.01647923      -0.06346074      -0.11106267
H        5.54667653       4.78784274      18.43316362       0.03424427       0.06361990       0.13431881
H        8.36860097       4.80622098      18.41891721      -0.02054209       0.02078171       0.27523303
H       10.98184821       4.80204638      18.39897305       0.24930909       0.06023581       0.80501348
H       15.33256329       7.40959486      18.48846569       0.03267538      -0.04055273      -0.89474344
H        7.21124942       7.27798316      18.47034806      -0.16393149      -0.02375468      -0.25728080
H        9.77625237       7.20434694      18.45857798       0.02766224       0.04360668      -0.35536247
H       12.61507464       7.28993055      18.45942931      -0.03074757      -0.03948572      -0.52950871
H        9.03642383       7.33066804      13.60805391      -0.54319340       0.79370987      -0.60136616
H        8.66360857       7.87739169      13.19143989       0.53746039      -0.79334122       0.60827523
H        0.74578605       0.87414263      32.78617827      -0.32189906       0.25803337      -0.45842388
H       11.51381243       1.19410181      32.22082932       0.32586318      -0.26348513       0.44466308
H        5.11680490       7.51632649      14.73943474      -0.36775675       0.28202689      -0.02325049
H       15.70414791       7.99875641      14.68462898       0.37071890      -0.32456350       0.04379078
H        2.37992836       2.16315895      36.35977993       0.02742545      -0.01801932       0.00140151
H        1.75164423       2.56336282      36.30005108      -0.02854105       0.01622340      -0.00740786
H       10.80397392       7.35154878       8.80324146       0.11678749      -0.10300226      -0.00820748
H       10.25447822       7.85086008       8.85129317      -0.11350727       0.10625393       0.01351141
H        7.62529130       0.93633984      33.80211060       0.22644272      -0.15952411      -0.01741922
H        7.01824385       1.36144894      33.82823339      -0.22194459       0.15256645       0.00367873
H        4.23246934       7.03087883       1.15559284       0.33236036      -0.09047610       0.65416890
H       14.84902229       7.48883981       1.31558321       0.21026972       0.00432074       0.71096045
H        8.63315189       2.46955587      38.61985507       0.07652221       0.02423496      -0.01753930
H        7.96121816       2.78781666      38.67332152      -0.02743110       0.06691425      -0.00051911
H        6.00968558       1.48417228      16.86357796      -0.23598847       0.15583971      -0.27666616
H        5.32414710       1.69116745      17.08580476       0.09884838       0.00276368      -0.31227875
H        4.71223830       6.62701839      34.93741665      -0.14991280       0.03344363       0.04342851
H        4.00556234       6.77708310      35.14768701       0.14830869      -0.03035162      -0.04411371
H       13.45578110       9.56980431      16.25433783      -0.72763819       0.18637362       0.59928071
H        7.33670027       0.05522202      16.80046398       0.79981703      -0.34107330      -0.93498999
H       13.64833257       9.66417527      44.98357096      -1.25591302       0.09752504       0.37705898
H        7.31304691       0.02588908      45.22341126       1.22689223      -0.03875707      -0.40807036
H        7.72434368       0.80298730      10.89413380      -0.18197370      -1.66475272       0.52708238
H        7.64070271       0.04056815      11.13486419       0.18044955       1.66133463      -0.52411377
H       14.58485746       7.72354247      46.22603881      -0.34200123      -0.24737228      -0.53984094
H       14.31911443       7.06821525      46.47049858      -0.16236004       0.28048757      -0.79118842
H        6.67194958       9.65207969       2.47350787      -0.02227218      -0.38837698      -0.07039167
H        6.68171831       8.90437184       2.37642815      -0.01093516       0.18698658       0.01357054
H        5.70303657       2.18682415      40.00523941      -0.12062512       0.26957375      -0.01583928
H        5.94795332       1.49311623      40.08723387       0.07892696      -0.27475968       0.03745789
H       12.29125498       2.49855487       3.20868409       0.34146670      -0.88715923      -0.31285650
H        1.36789276       1.80268524       2.96855634      -0.31838924       1.08281863       0.36482647
H        8.96316001       0.76562020      30.70438173       0.20322876      -0.38385314      -0.18416788
H        9.24211827       0.18897879      30.28885858      -0.15933925       0.40687943       0.38349164
H        4.64456541       5.28237493       7.93263559       0.27018389      -0.36452821      -0.76830995
H        4.87857739       4.96611203       7.26649557      -0.27051452       0.36476859       0.76873678
H        9.55537746       8.92209859      32.65261293       0.07786381      -0.31913385      -0.56577361
H        9.64793042       8.54030828      31.99348011      -0.08069640       0.32779717       0.54341066
H        2.80415278       4.39438597      14.48923017      -0.02882670      -0.01263337      -0.09316701
H        2.59072576       4.27895354      13.77783501       0.03339015       0.01850449       0.11323474
H        8.84595617       8.07008942      42.90962875      -0.03034879      -0.00149253      -0.10963699
H        8.63880639       8.05805961      42.18784751       0.03192282       0.00271971       0.10830696
H       10.11472565       0.98163507      15.42536445      -0.00684762       0.03339041      -0.08399280
H        9.95647723       1.03244081      14.69258348       0.02703824       0.01787097       0.10425542
H       13.60704693       9.59446445      38.86885286      -0.14732063      -0.06057545      -0.25517765
H       13.23403229       9.56085796      38.21311465       0.13959008      -0.02768950       0.24618135
144
Lattice="11.174675241468789 0.0 0.0 5.587337620734394 9.677552638152974 0.0 0.0 0.0 46.84306309572773" Properties=species:S:1:pos:R:3:forces:R:3 energy=38.39335327441509 pbc="T T T"
Pt       0.00417548       0.00522855      19.98928046      -0.01198803      -0.11184994      -0.65981507
Pt       8.38697993       9.67210987      20.00773565      -0.07058990       0.12200169      -1.11464560
Pt      11.17722479       9.67709066      20.00512120       0.01347232      -0.09136853      -0.67691779
Pt      13.95923080       9.66987489      20.00514799       0.08670764       0.08412907      -0.80808079
Pt      12.55929809       2.42783726      19.98597514       0.26623827      -0.13428539      -1.19913387
Pt       4.18641857       2.42138522      20.00654140      -0.08876015      -0.01316174      -0.78608787
Pt       6.97768515       2.42224117      19.98567540       0.19182669      -0.07652427      -0.39559820
Pt       9.78622698       2.41063635      20.00028205      -0.07233748       0.17902027      -0.84974325
Pt       2.80242199       4.83167687      19.99556100      -0.22789077       0.17022093      -0.84686923
Pt       5.58255309       4.86082359      20.00163305       0.03019324      -0.26737675      -0.98569572
Pt       8.36781101       4.83882756      19.99275714       0.02311808      -0.08375472      -0.82558101
Pt      11.16420717       4.84736392      20.00251583      -0.17246242      -0.07110258      -1.08560956
Pt       4.19365536       7.24879545      19.99271326      -0.01268737       0.37583438      -1.18008327
Pt       6.99715701       7.26225808      20.00425821       0.08754787       0.00905131      -0.86299676
Pt       9.76910605       7.27915945      19.99618296       0.23267379      -0.25637296      -0.55411881
Pt      12.57780363       7.25691821      19.98399338      -0.09716560      -0.07816745      -0.28342018
Pt       1.39892104       0.79759728      22.27723085       0.02996287       0.12788410       0.29676908
Pt       4.19271323       0.79896540      22.28143964      -0.09027556       0.10199696       0.21624136
Pt       6.97386138       0.80136941      22.28064396       0.15114334       0.07815023       0.28463170
Pt       9.77820444       0.80905336      22.27347194       0.00123336       0.02456432       0.31823319
Pt       2.79217477       3.22691236      22.28946736       0.02374285      -0.06988645       0.15155420
Pt       5.59589759       3.21640372      22.27675233      -0.10067412       0.15905668       0.25108340
Pt       8.37625313       3.22198969      22.27990020       0.05253664       0.01453059       0.27049857
Pt      11.18395661       3.21652115      22.28902804      -0.09301429       0.08409436       0.17279537
Pt       4.17775353       5.65120726      22.26840574       0.21965836      -0.07254291       0.37584031
Pt       6.99144769       5.64942561      22.27583284      -0.17332605      -0.08288209       0.31016326
Pt       9.77240606       5.64534015      22.27644748       0.09418440       0.01649594       0.37002704
Pt      12.57638215       5.64223957      22.29678030      -0.12282084       0.06062662      -0.11772954
Pt       5.59363720       8.07217696      22.28189149      -0.04040026      -0.12220608       0.15560086
Pt       8.37613226       8.05824343      22.27709186       0.09354857       0.06189417       0.48754188
Pt      11.18335021       8.06958174      22.29013872      -0.04140428      -0.20004264       0.09001485
Pt      13.98492560       8.07465705      22.27902083      -0.14436565      -0.12241512       0.31084844
Pt      11.18370146       1.61367996      24.56907712      -0.19633999      -0.00497174      -0.26375508
Pt       2.79042245       1.61741412      24.57078865       0.07735679      -0.06879373      -0.45309782
Pt       5.58278587       1.60643831      24.56012358       0.07415242       0.12070327      -0.20944953
Pt       8.37578299       1.62191939      24.56505977       0.09912169      -0.14864191      -0.32378548
Pt      12.56989258       4.02871415      24.56376320      -0.04753713      -0.03633766      -0.14679869
Pt       4.19816513       4.02214848      24.56376375       0.00158354       0.13358374      -0.21050034
Pt       6.99327217       4.04182797      24.56785017      -0.15158634      -0.10105902      -0.34718356
Pt       9.76462911       4.03926404      24.56856066       0.14208868      -0.07648209      -0.29230437
Pt      13.95129853       6.44782716      24.55938785       0.25727540       0.03607490      -0.10514347
Pt       5.58386571       6.45416154      24.55637779      -0.08588643      -0.07796691      -0.37297326
Pt       8.36748323       6.45010617      24.56892756       0.24138109       0.11424647      -0.45417744
Pt      11.18487952       6.44404883      24.56409109      -0.20737928       0.05103615      -0.31473699
Pt      15.37266453       8.85600318      24.55894807      -0.12301804       0.22570765      -0.07627050
Pt       6.98731241       8.87562256      24.56967742       0.02250692      -0.05408599      -0.34564397
Pt       9.78140267       8.87799495      24.55285094      -0.13186726      -0.20138475      -0.03839686
Pt      12.56516241       8.86551040      24.55459585       0.10007197       0.06272130      -0.20133051
Pt       5.60224241       9.67372297      26.85207225      -0.12374721      -0.03221258       0.39441651
Pt       8.38818383       9.67033993      26.84232878      -0.15025117       0.09655444       0.96962506
Pt       5.57248056       0.00482917      26.84563064       0.01772287       0.09081163       0.74147791
Pt       8.36694822       0.00602884      26.82708284      -0.01896446      -0.14172693       1.35444701
Pt       1.40426336       2.41756776      26.84291195      -0.17002064      -0.03462068       0.72954261
Pt       4.17968755       2.41763224      26.84625208       0.14270240       0.25633413       1.12213516
Pt       6.98718243       2.42303900      26.84373442      -0.17846774       0.14298625       0.94318539
Pt       9.75837636       2.41407974      26.85389013       0.20914435       0.03058225       0.78567934
Pt       2.79428242       4.83420984      26.83933021       0.02773089       0.16260558       0.77787858
Pt       5.59559463       4.84919501      26.84692760       0.14752066      -0.03794460       1.15811622
Pt       8.39206791       4.84319895      26.85361963       0.02849888      -0.01098375       0.71519840
Pt      11.16804968       4.85264315      26.84235838       0.21925393      -0.26159281       0.58702326
Pt       4.20730254       7.26146451      26.84644092      -0.14980353      -0.03188091       0.77313000
Pt       6.98993838       7.24839961      26.83660303       0.06109224      -0.00557210       0.85379964
Pt       9.78475885       7.23909580      26.84645923      -0.04104715       0.23326798       0.96904242
Pt      12.56771238       7.26280019      26.84665339       0.06841500       0.20049387       0.96146542
H        5.70866824       9.59302082      28.39430447      -0.10042113       0.04023880       0.22771055
H        2.60919775       0.20303889      28.39667844       0.22360654      -0.24323307      -0.26991418
H        5.54914144       0.19324108      28.40233381      -0.02269847      -0.14451221      -0.11571919
H       13.79373367       9.67571183      28.42527052       0.16511317       0.00737444      -0.83209467
H        1.46175996       2.25106345      28.39438794      -0.08261804       0.17945504       0.00694069
H        4.13941332       2.56612582      28.42815475       0.05778863      -0.12964532      -0.45853084
H        6.93298811       2.52732935      28.41621892       0.04886485      -0.08282244      -0.27106062
H        9.74717299       2.41977884      28.42391427       0.02231820      -0.00989643      -0.18588820
H       13.98580487       4.93456929      28.40415448      -0.01606991      -0.07462833      -0.12402848
H        5.82940144       4.97168076      28.42363536      -0.26152518      -0.15383914      -0.57152414
H        8.51187312       4.98586863      28.40319442      -0.06677490      -0.14002280       0.00078213
H       11.27461986       4.88722499      28.39335231      -0.05136602      -0.03827293       0.10752869
H        4.29430481       7.16618653      28.40879975      -0.08443452       0.08903576      -0.12256913
H        7.04943178       7.08374914      28.39556159      -0.03226529       0.18279517      -0.12152731
H        9.81338086       7.18585175      28.42811235      -0.02179164       0.10106184      -0.36734459
H       12.49104979       7.46510680      28.41220704       0.07731257      -0.18398815      -0.30929807
H        5.69048084       9.60887382      18.43268834      -0.08398946       0.06060528       0.00558084
H        8.34228196       9.59715849      18.42450393       0.08143944       0.09012206       0.39583936
H       11.22635358       9.58881661      18.44816969      -0.09913249      -0.00891659       0.17554568
H       13.90091102       9.60959460      18.43940352       0.14211310       0.06686334       0.35649350
H        1.51266832       2.33380928      18.39409653      -0.14599702       0.11786863       0.62113768
H        4.15633730       2.42305427      18.43707755      -0.04310840       0.03955514       0.27968258
H        7.09239186       2.32629463      18.44236855      -0.01466172       0.12238015       0.00337714
H        9.82888236       2.55842000      18.43450117      -0.03346394      -0.16831420       0.18995595
H       13.91678903       4.95505504      18.42712804       0.03534727      -0.11069191       0.21074358
H        5.53541201       4.75737072      18.42682881       0.04770734       0.10665502       0.28189963
H        8.36220627       4.78848049      18.42102440      -0.03505597       0.03185777       0.20965342
H       10.88363160       4.77304358      18.43400464       0.32761770       0.09415792       0.51252735
H       15.31708486       7.48689112      18.41527244       0.08825210      -0.26121640       0.51949555
H        7.32192833       7.30015497      18.46923233      -0.30190229      -0.05542065       0.08899000
H        9.77871464       7.16890750      18.44278549       0.04136726       0.08918901      -0.05549341
H       12.62328548       7.31744222      18.44073191      -0.04730573      -0.07279642      -0.24257821
H        9.01926328       7.30230152      13.58291861       0.16803858      -0.28283808       0.15951383
H        8.67556359       7.87502940      13.26683606      -0.17377034       0.28343379      -0.15268111
H        0.73431901       0.87500744      32.75984378       0.25551549      -0.15682445       0.30870107
H       11.48029705       1.14577615      32.22370761      -0.24955463       0.15194862      -0.32163784
H        5.07801220       7.52568852      14.71244896       0.28648826      -0.27785116       0.05081040
H       15.70489847       8.01525814      14.63478141      -0.28246450       0.23116302      -0.03126539
H        2.38183779       2.19036727      36.34532010       0.03302119      -0.01973168       0.00324550
H        1.74105136       2.56512814      36.26061591      -0.03443890       0.01827515      -0.00884280
H       10.80722648       7.36798069       8.81229076       0.50230539      -0.54043281      -0.07301034
H       10.31446331       7.90102798       8.88573306      -0.49854210       0.54330194       0.07793066
H        7.57469912       0.90344176      33.79422630       0.52304161      -0.37761617      -0.03882803
H        6.98074787       1.33058560      33.82988914      -0.51925874       0.37092048       0.02498161
H        4.21056501       6.98188039       1.29041946       0.55962944      -0.51651180       0.23562671
H       14.93599689       7.53448008       1.43970617      -0.24986240       0.46921170       0.51645958
H        8.64065970       2.40865275      38.64512076       0.56563324      -0.24871182       0.01319336
H        8.00335263       2.76599081      38.61249894      -0.51819533       0.34771678      -0.03062827
H        6.00031774       1.46301129      16.84794120       0.80254602      -0.15923281      -0.55297208
H        5.33138551       1.65334140      17.03953808      -0.97248799       0.30162591       0.02392977
H        4.71011798       6.63518868      34.92500019       0.92520642      -0.12424111      -0.26481053
H        4.01934259       6.72919496      35.12175306      -0.92648143       0.12666078       0.26416597
H       13.38265833       9.60803057      16.19102446      -0.42498538       0.10257854       0.56510514
H        7.38839902       0.06597521      16.83272969       0.51844835      -0.26096699      -0.86809576
H        8.00204511       0.00759499      45.05097413       0.01825741       0.03579696      -0.02847728
H        7.27238356       0.00338224      45.20796310      -0.04914484       0.02679090      -0.00315500
H        7.70405017       0.79427683      10.96722233      -0.02856290      -0.46132255       0.10645345
H        7.65741693       0.05317042      11.13509873       0.02699813       0.45792741      -0.10331722
H       14.55775546       7.71972603      46.21446850       0.09474002       0.41429192      -0.46855351
H       14.23061008       7.09042801      46.38933812      -0.36410064      -0.42440510      -0.24867532
H        6.67798770       9.57486361       2.53434390       0.01712021       0.53888553       0.11432463
H        6.63955591       8.86248491       2.37703503      -0.04405688      -0.70262134      -0.15828149
H        5.67271724       2.17872498      39.97484483      -0.53968334       1.06852484      -0.17663608
H        5.98198247       1.53985157      40.08861917       0.50267333      -1.07270002       0.19494106
H       12.28744394       2.50189175       3.17883733      -0.09333003       0.32813835       0.07619748
H        1.33902191       1.81631593       3.01974014       0.10995246      -0.16919094      -0.03674004
H        9.00875835       0.72644643      30.73452226      -0.17616147       0.38644791       0.39540717
H        9.26252359       0.19469435      30.29449397       0.20844680      -0.37134883      -0.23318416
H        4.60016418       5.27034540       7.90526082      -0.04920192       0.06859550       0.13706757
H        4.82996510       4.95298698       7.27306496       0.04920758      -0.06859241      -0.13610573
H        9.61366301       8.91138937      32.67473520       0.00167867      -0.03228483      -0.06067752
H        9.62592553       8.49246055      32.05198987      -0.00333241       0.04116079       0.03944715
H        2.80942266       4.36383329      14.45203216       0.14356296       0.09592375       0.39437616
H        2.56088178       4.20226399      13.77630752      -0.13935509      -0.09056789      -0.37585133