144
Lattice="11.174675241468789 0.0 0.0 5.587337620734394 9.677552638152974 0.0 0.0 0.0 46.84306309572773" Properties=species:S:1:pos:R:3:forces:R:3 energy=40.07418856179281 pbc="T T T"
Pt       5.73665350       9.57401399      19.75025442      -1.05427480       0.29347757      -0.09445694
Pt       8.47011552       9.63940038      19.66238655      -0.10860752      -0.00574667       1.09394538
Pt      11.27199708       9.60552196      19.80480426      -0.73747778       0.18593808      -0.60170889
Pt       8.44419291       0.01931058      19.73330767       0.14653207       0.13527551      -0.21990827
Pt       1.40382652       2.30597840      19.57424963      -0.31267110       0.21320850       0.00835557
Pt       4.10806414       2.38228688      19.72189329       0.49962941      -0.24979272       1.57315016
Pt       6.98208933       2.37580894      19.82678388      -0.16749762      -0.05340387       0.51865017
Pt       9.72080880       2.47034193      19.89515879       0.45718333      -0.86092597      -0.06597965
Pt      13.93633798       4.81685003      19.89729761      -0.35007140      -0.18281728       0.70207167
Pt       5.61745210       4.65562785      19.85537386      -0.26361343       1.04877210      -0.17754960
Pt       8.34383498       4.92541928      19.74488296       0.04571705      -0.80924010      -0.53662628
Pt      11.08908908       4.69909455      19.83805699       0.76830614       0.86455590       0.55068254
Pt      15.31258815       7.18269812      19.93874594       1.43929362       0.03180043      -0.14119394
Pt       7.06340022       7.20792984      19.82019396      -0.94746780       0.52707952       0.64370143
Pt       9.77820724       7.18693140      19.81713227       0.73575622       0.44426069       0.42023632
Pt      12.66357973       7.34234738      19.75679515      -0.94295114      -0.99728680       0.46615982
Pt       1.40914168       0.78679207      22.27476721       0.14903195      -0.12439975      -0.57131946
Pt       4.22177848       0.80940572      22.14766667      -0.24958961       0.08864496       0.53867137
Pt       6.95866066       0.78747618      22.24964637       0.35989869       0.76958704      -0.06246855
Pt       9.80592705       0.80842882      22.14353514      -0.12013841      -0.06700321       0.48491344
Pt       2.70822566       3.15728569      22.17708468       0.81648833       0.33976051       0.14048354
Pt       5.47248504       3.26099345      22.27486736       0.50505263      -0.48157924       0.19680485
Pt       8.42922477       3.27900313      22.18714928      -0.72322077      -0.64671916       0.44725397
Pt      11.23348492       3.20794989      22.23176674      -0.78915006      -0.44752625      -0.00346816
Pt       4.25103662       5.65479639      22.24857559      -0.71684700       0.06608147       0.67598319
Pt       7.02033889       5.67024814      22.25367976      -0.75450647      -0.24713522       0.25168788
Pt       9.63669959       5.63694184      22.20292964       1.31298506       0.30636007       0.39728716
Pt      12.42496869       5.58230790      22.22454654       0.99214739       0.88355297      -0.22169673
Pt       5.67116168       8.01727310      22.26912331      -0.60571414       0.44924736      -0.14792792
Pt       8.44226508       8.09240629      22.21545669      -0.25009355       0.17978132       0.13795589
Pt      11.18440840       8.07572169      22.24639815      -0.05614518      -0.35101500      -0.25513086
Pt      13.95721799       8.14018855      22.04596658       0.15886153      -0.60924560       1.74908566
Pt      11.12147083       1.60320929      24.55474496       0.33185309       0.79889941       0.20359205
Pt       2.90245074       1.61252358      24.65449529      -0.52128863       0.11818411      -0.47407520
Pt       5.60741309       1.77174170      24.61522146       0.08553933      -0.76617134      -0.02728249
Pt       8.37384357       1.69714181      24.60586058      -0.22206311      -0.01911384      -0.39459959
Pt      12.67538834       4.10214119      24.51266546      -0.98633569      -0.55881542       0.59963995
Pt       4.11804706       4.11871090      24.75084964       1.07348239       0.03505005      -1.14693320
Pt       7.02203716       4.14379581      24.56871179      -0.45965210      -0.24337910       0.34871233
Pt       9.81132937       4.14432132      24.61276537      -0.09421114      -0.85359424      -0.01184764
Pt      13.98500367       6.53151545      24.74097772       0.04981358       0.05553866      -0.84868574
Pt       5.58569022       6.55983336      24.74643208      -0.39330581      -0.39703545      -0.41463232
Pt       8.38176467       6.48305692      24.68132637      -0.23042846       0.25109190      -0.42304960
Pt      11.16148327       6.42880035      24.57490875       0.51588082       0.46174213       0.00078033
Pt      15.26917204       8.99115963      24.58451896       0.22066469      -0.74830830      -0.18885063
Pt       6.94886149       8.94617602      24.57961571       0.59075212      -0.51477194       0.10947347
Pt       9.83146110       8.84190036      24.61202416      -0.29162636       0.49814510       0.02425887
Pt      12.55666810       8.82566614      24.53818653       0.17163195       0.48389015       0.43509445
Pt       0.08786607       0.00921847      26.90999739      -1.07959855      -0.50094426       0.94988900
Pt       2.79088939       0.01753641      27.02304333       0.50145876      -0.29438722      -0.74391353
Pt      11.22564749       9.61444322      27.06249118      -0.18113758       0.78415978      -1.02144766
Pt       8.43055764       0.03342539      27.09370600      -0.12223848      -0.02984048      -0.35166189
Pt      12.54514752       2.38150710      26.99128112      -0.11267398       0.57704663      -0.12773371
Pt       4.13593709       2.44009419      27.09315026       0.53924447      -0.55837035      -0.03265841
Pt       7.00555498       2.46917728      26.97341245      -0.44587767      -0.16920766      -1.25377202
Pt       9.70862122       2.47849653      27.01372330       0.84007460      -0.31852704       0.69646972
Pt      13.92614815       4.85436921      27.06649161      -0.19415456       0.03712210       0.01477999
Pt       5.42866027       4.79085179      27.17742051       0.80312681       0.35853085       0.46232527
Pt       8.36532062       4.87346701      27.18041057      -0.06499955       0.01483347      -1.40120149
Pt      11.21779793       4.87825829      27.00444330      -0.03295589      -0.69024920      -0.15992083
Pt      15.26255630       7.24258759      27.21054922       0.85952681       0.31641823       0.12794890
Pt       6.94630926       7.19194793      27.04193595       0.38561895       0.43893361       0.62819487
Pt       9.89518566       7.20631070      26.96722206      -1.19959176       0.56799507       0.29298109
Pt      12.59203519       7.29901412      27.19270255      -0.30658248      -0.27309462       0.35304719
H        5.59638443       9.52657204      28.49863215       0.12429639       0.15531342      -0.63343245
H        2.76738766       0.09499135      28.54259934      -0.00502188       0.01611259       0.54943603
H        5.77322579       0.12444858      28.55835562      -0.04387305       0.01105240       0.72648299
H       14.02013299       9.66528916      28.63556143      -0.00745363       0.04247540       0.11608300
H       12.50232085       2.45804310      28.54344588       0.00641079      -0.04946726      -0.05702861
H        4.42781807       2.53742128      28.62291306      -0.19570108      -0.20260398      -0.06081457
H        7.17755590       2.83636620      28.40753619       0.05717285       0.03691822       1.44582784
H        9.89406141       2.27826497      28.60057415      -0.21122386       0.23273011      -0.84702766
H        2.92016535       4.76383831      28.59272082      -0.23287383      -0.01398629       0.32413360
H        5.25568967       4.59953834      28.74745870       0.29459804       0.26092148      -0.63057494
H        8.17132660       4.94681689      28.66508887       0.02264859       0.00695689       0.99809563
H       11.28219138       4.66799033      28.53354790      -0.06465528       0.09450759       0.17621315
H       15.31114921       7.28009379      28.78298767      -0.01989880       0.00671701      -0.39876115
H        7.24030818       7.32846694      28.60160828      -0.36629868      -0.11720143      -0.47381219
H        9.42035945       7.39812612      28.44607055       0.39383262      -0.14503002      -0.13012148
H       12.29975495       7.17077655      28.74399991       0.25358382       0.16171083      -0.54157001
H       10.82663099       0.15629791      18.26618236       0.48167899      -0.35071701       0.45184544
H        3.29047051       0.10216004      18.22071873      -0.06683481       0.00264361      -0.91001636
H       11.11900471       9.32186539      18.24166920       0.19047429       0.35284075       0.59602135
H        8.46264413       0.02888422      18.16740679      -0.06511679       0.04826938       0.17181836
H        1.28186289       2.13458563      18.01041639       0.11494709       0.16647869       0.60173690
H        4.07587402       2.70846535      18.27766917      -0.01566856       0.16428116      -1.54592812
H        6.81531239       2.52391335      18.31530327       0.11519623      -0.12299850      -0.50618649
H        9.80312856       2.22218161      18.38150420      -0.08881774       0.18725705      -0.48267272
H       13.66342220       5.19108848      18.45186037       0.01456453      -0.02489342      -0.83335423
H        5.84013396       4.61858284      18.30608045      -0.19790605       0.01038186       0.17742233
H        8.20953174       5.43619116      18.24617819       0.13206370      -0.59329855       0.41929632
H       11.24621150       4.78630133      18.33227340      -0.07087889      -0.06261691      -0.75478184
H        4.26901339       6.81566783      18.44648807       0.02070407       0.12741463      -0.47538081
H        6.89357432       7.16044495      18.31143818      -0.05745439       0.07852510      -0.68657333
H        9.73177752       7.04445388      18.29648186       0.06381067       0.09629682      -0.50613403
H       12.13507981       7.38008199      18.31874337       0.16171905      -0.14248464      -0.57827121
H        7.87078062       5.55069169      12.20960883       0.67352343       0.17362173      -0.23877272
H        8.57593586       5.73115356      11.96065877      -0.66840458      -0.16667537       0.23167570
H        6.75781316       7.48860651      32.11032921       0.01441232      -0.32615474      -0.44475487
H        6.73187692       7.92806367      32.69933776      -0.01862250       0.32228369       0.42382661
H        4.20989342       5.12065972      15.94779433       0.12291494      -0.73999798      -0.55199170
H        4.29535717       4.51333186      15.47188930      -0.06714102       0.74760151       0.60914069
H        1.71968992       2.93423612      35.91284224       0.10822417      -0.03998554      -0.00156220
H        2.43838743       2.71455445      35.92525058      -0.11969386       0.03679146       0.00219084
H       11.10621394       6.71598025       9.37822492      -0.32971185      -0.76264328       0.19339608
H       10.80571517       6.02579982       9.55356999       0.32908607       0.76055861      -0.19136311
H        5.13917851       2.38836479      37.03278762      -0.07056213      -0.35485622      -0.21279557
H        5.00942159       1.74115824      36.65591130       0.07840220       0.36470997       0.21245284
H       13.26072873       6.34897467       6.24925920       0.09806111      -0.20347197       0.01264109
H       12.93905420       7.01756507       6.22077996      -0.09635184       0.20048384      -0.00697797
H       10.27891798       0.78852299      35.34706481      -0.06536105      -0.04821024      -0.53613573
H       10.17691419       0.71751367      34.59375726       0.07709274       0.05047487       0.53260690
H        4.34474908       0.66458745      13.60842974       1.09034193       1.51244664      -0.13773735
H        3.93311981       0.09384157      13.66044447      -1.09129834      -1.50597620       0.14365861
H        6.78842096       5.13095289      36.55025259       0.28142655      -0.74525362      -0.28135559
H        6.54217577       5.77094741      36.79346844      -0.28489009       0.73581356       0.28478518
H       12.58634953       8.24608062      14.61191283       0.43092206      -0.48729557      -0.02950033
H       12.10191283       8.79327957      14.66603545      -0.42837846       0.47607681       0.06037902
H        6.09241493       2.69160483      45.87776879       0.13910517      -0.54529166      -0.37950617
H        6.24929310       2.07544003      45.44865060      -0.13913834       0.54504305       0.37958357
H       15.37249409       8.00281285      10.25775825       1.37494099      -0.70404321       0.47369263
H        4.87803631       7.65603520      10.49193591      -1.37435687       0.69909817      -0.47277579
H       11.16417608       6.51368578      43.58089309       0.42336020      -0.01293214       0.00448580
H       11.92357389       6.49326911      43.59861960      -0.42391968       0.00953417      -0.01557266
H        4.60825907       5.63381945       2.71938393       0.03919467      -0.17791624      -0.27498594
H        4.51858881       6.03005567       3.33735217      -0.04367251       0.17949747       0.28120673
H        2.17424179       1.47796819      40.95902515      -0.17070353       0.47973293      -0.01333374
H        2.42372629       0.78624779      40.97242422       0.17162526      -0.47581559       0.00816377
H        0.88775105       1.06867245       4.27252360       0.22880068      -0.10970975       0.31750119
H        1.31522712       0.86389357       4.86548595      -0.22873512       0.10955755      -0.31702682
H        7.41628475       3.24720910      31.95972338       0.18257841      -0.23950857       0.20242168
H        7.05433494       3.72707629      31.52870881      -0.18395936       0.24750006      -0.23832251
H        4.05893801       3.13005090       8.85268418      -0.05054018      -0.01246857       0.06357182
H        4.50654743       3.26208836       8.27075507       0.04872575       0.01607788      -0.06427373
H        8.99579102       8.33761792      30.53227795      -0.89157820      -0.23511635       0.15596031
H        9.69421213       8.53101891      30.50180492       0.89878035       0.25404584       0.04204448
H       13.44541987       4.13719743      14.12316795      -0.07470392       0.03755354      -0.04301353
H       13.01577731       4.64949915      13.78373083       0.01354072      -0.05000745       0.01404928
H        8.38417566       6.10027393      40.34552211       0.01764985      -0.40482590      -0.05958532
H        8.35338474       6.83017260      40.44864029      -0.01589456       0.40873834       0.05718494
H        1.65789582       0.77619165      15.56194600      -0.43222871       0.93039078      -0.62320358
H        1.92107477       0.21305002      15.92568920       0.42541400      -0.93130505       0.59763062
H       12.71537954       5.00209760      40.22298182       0.64681840       0.02199965      -0.48778972
H       13.32942744       5.02356528      39.75594631      -0.64991140      -0.02999629       0.49354899
144
Lattice="11.174675241468789 0.0 0.0 5.587337620734394 9.677552638152974 0.0 0.0 0.0 46.84306309572773" Properties=species:S:1:pos:R:3:forces:R:3 energy=38.94830425834803 pbc="T T T"
Pt       0.00542768       0.00392258      19.97612844       0.05389213      -0.19012359      -1.08271658
Pt       8.39231364       9.66639141      20.01578908      -0.11630900       0.30722809      -0.57759196
Pt      11.17674506       9.67591300      20.01028116       0.05482749      -0.08231284      -0.38413674
Pt      13.95329749       9.66215787      20.00940965       0.19185805       0.20137344      -0.03581958
Pt      12.55409864       2.43548865      19.97184396       0.20628245      -0.09596387       0.39198425
Pt       4.18319818       2.42225637      20.01126189      -0.10186531      -0.04020563      -0.32574567
Pt       6.97504461       2.42195702      19.97337499       0.24696553      -0.16218932      -0.44199863
Pt       9.79720153       2.40070340      20.00144186      -0.16344529       0.28442368      -0.64106762
Pt       2.80750518       4.82401811      19.99203548      -0.36633235       0.30270475      -0.61816651
Pt       5.57445717       4.87836027      20.00115288       0.15493675      -0.42141259      -0.24798550
Pt       8.35521772       4.83485567      19.98561283       0.05204299      -0.09311971      -0.34471247
Pt      11.15562443       4.85587461      20.00031921       0.15810692      -0.02839167       0.39721593
Pt       4.19785473       7.23913114      19.98370970      -0.07626329       0.57061267      -1.20822656
Pt       7.00654247       7.26419956      20.00493774       0.07324199       0.05762023      -0.94813013
Pt       9.76072392       7.29723409      19.98927203       0.42591020      -0.56961435      -0.92455363
Pt      12.58356976       7.25740556      19.97036887      -0.15625469      -0.15455674      -0.33189705
Pt       1.40343852       0.78948635      22.27341839      -0.00030339       0.22216210       0.32087910
Pt       4.19674373       0.79342042      22.27942167      -0.15522857       0.20706792       0.26218441
Pt       6.96677679       0.79499169      22.28195080       0.24229436       0.18367705       0.25987968
Pt       9.77328214       0.81207339      22.27204246       0.09386764       0.03430495       0.31457913
Pt       2.79097479       3.22796844      22.29483517       0.06266447      -0.13952298       0.12811628
Pt       5.60560927       3.21017359      22.26935081      -0.19314642       0.24690691       0.29477856
Pt       8.36928531       3.21794358      22.28308545       0.13286820       0.04323824       0.19872160
Pt      11.19204297       3.20635897      22.29728986      -0.21475732       0.16458765       0.16363093
Pt       4.16531582       5.65576176      22.25926394       0.38880894      -0.10476398       0.52399009
Pt       6.99381351       5.65422364      22.27167516      -0.27111796      -0.13802120       0.35444742
Pt       9.76661258       5.64476789      22.27024990       0.18384340       0.02582313       0.49030837
Pt      12.58207883       5.63685183      22.31125717      -0.23691046       0.12817337      -0.39884728
Pt       5.59658209       8.08286511      22.28240371      -0.03465950      -0.23345695       0.04946700
Pt       8.37745695       8.05326554      22.27433696       0.12003685       0.08406377       0.58887625
Pt      11.19217133       8.07479357      22.29797686      -0.08932322      -0.40460321      -0.07373487
Pt      13.99685969       8.08404563      22.28011402      -0.25039050      -0.24238332       0.27108556
Pt      11.19104319       1.61626251      24.57192398      -0.35300246      -0.06577371      -0.23041354
Pt       2.78824642       1.61910055      24.57568186       0.11645504      -0.12191349      -0.60170633
Pt       5.58014518       1.60278790      24.55987713       0.11506099       0.17845823      -0.21677873
Pt       8.36880401       1.63237431      24.56575458       0.20706844      -0.26574668      -0.38818932
Pt      12.57143975       4.02500860      24.56673016      -0.10310304      -0.04413273      -0.05642723
Pt       4.20631352       4.01375506      24.56285991      -0.02252621       0.25151819      -0.26489049
Pt       6.99926075       4.04685588      24.57320731      -0.25477681      -0.09536377      -0.39328960
Pt       9.75083122       4.04528555      24.57720481       0.29225603      -0.08627158      -0.33660731
Pt      13.93734737       6.44543112      24.55749471       0.48726419       0.05250296       0.03952043
Pt       5.58035651       6.45594629      24.55090347      -0.13242519      -0.12529399      -0.43286839
Pt       8.35722915       6.45016000      24.57315351       0.39674106       0.15781972      -0.56968015
Pt      11.19453170       6.44021582      24.56646030      -0.39935279       0.05022599      -0.37044612
Pt      15.37699128       8.84240176      24.55572366      -0.12954067       0.39672819       0.06747938
Pt       6.99404384       8.87817790      24.57384468      -0.04140119      -0.08887404      -0.34537426
Pt       9.78354859       8.88458585      24.54601711      -0.18244909      -0.33965278       0.09583402
Pt      12.56092139       8.86180492      24.54823536       0.13809730       0.11798022      -0.11361732
Pt       5.61062597       9.67186897      26.86080610      -0.11280151      -0.08885862       1.34414256
Pt       8.39228878       9.66165232      26.84429099      -0.14540747       0.06817126       0.61458445
Pt       5.56131676       0.01045794      26.84714311      -0.00621539       0.27457559       1.45489383
Pt       8.35628610       0.01405303      26.81261417       0.32201090      -0.25736976      -0.57269144
Pt       1.41210594       2.41379256      26.84154098      -0.32999778      -0.09354959       1.15775442
Pt       4.17064617       2.41805095      26.84387986       0.30007270       0.21297941      -0.03329193
Pt       6.98930984       2.42493106      26.84654588      -0.27483732       0.21456912       0.15326013
Pt       9.74094334       2.40780787      26.86551209       0.43185306       0.09888926       0.30380517
Pt       2.79716290       4.83056930      26.83821121      -0.00103590       0.25016835       0.38275552
Pt       5.59912595       4.86156913      26.85206018      -0.06495970      -0.29409617      -0.21174297
Pt       8.40396466       4.85131138      26.86427010       0.11849881      -0.07906915       1.31952441
Pt      11.16309915       4.86605387      26.84810960       0.48088863      -0.50179452       0.90508652
Pt       4.21830801       7.26104911      26.84986170      -0.23588562       0.02544004       0.63356847
Pt       6.99572647       7.24074417      26.83484618       0.05584617       0.09114742       0.61920220
Pt       9.79005340       7.22474251      26.85043829      -0.11318691       0.49943194       0.00542297
Pt      12.56428872       7.27016674      26.85004857       0.15148735       0.18373336       0.67352086
H        5.77527016       9.59184428      28.47043680      -0.27032813       0.07462576      -0.86959702
H        2.50005122       0.29184040      28.34201490       0.28841531      -0.29345340       0.13153508
H        5.51081199       0.32923368      28.44239284      -0.00049674      -0.37567985      -0.90809703
H        8.06982486       0.02425683      28.28017544      -0.02772549       0.02117406       1.31031084
H        1.47909344       2.14014102      28.40602683      -0.13075423       0.37206590      -0.39815643
H        4.08494641       2.65284302      28.34335949       0.04564274      -0.02817749       0.80552542
H        6.89928257       2.63132138      28.36129495       0.03669222      -0.07133424       0.56974083
H        9.77550056       2.44652017      28.40936206      -0.00594748      -0.04219104       0.26316553
H       13.99654243       4.98160375      28.37727519      -0.01319567      -0.07263599       0.26886877
H        5.94833342       4.98693463      28.32534179      -0.08564448      -0.05686124       0.82729596
H        8.64899021       5.01843091      28.43957721      -0.24137826      -0.23123193      -0.61608291
H       11.37316750       4.88964152      28.41209796      -0.15314572      -0.03517758      -0.26308402
H        4.38349675       7.13870928      28.39704255      -0.14060928       0.10780893       0.01028570
H        7.09278168       6.99177357      28.36533321      -0.03654001       0.22647539       0.16327740
H        9.80678058       7.16383422      28.37706185       0.00994940       0.09563784       0.60525036
H       12.43990496       7.54258300      28.38464962       0.09765256      -0.18782759      -0.00576673
H        5.75946026       9.54748028      18.39613688      -0.18323405       0.14934742       0.51754385
H        8.34345156       9.59053119      18.47056601       0.08851384       0.08006750      -0.25584331
H       11.26836332       9.46657043      18.48797325      -0.10737827       0.07631035      -0.28988111
H       13.90996315       9.60324428      18.48730274       0.10702115       0.03561312      -0.53907967
H        1.59092874       2.33360523      18.48000057      -0.05039337       0.03012228      -0.98014677
H        4.08120776       2.44616991      18.47330452       0.03323074       0.00126550      -0.27956817
H        7.16691537       2.26184412      18.43694476      -0.10133182       0.15240242       0.04604306
H        9.83944482       2.64562987      18.45781841      -0.02635304      -0.25775310      -0.00422664
H       13.91580828       5.03407588      18.44424854       0.02258560      -0.16479769      -0.00005374
H        5.49911372       4.70471904      18.47791452       0.04601812       0.08519017      -0.51892114
H        8.35336327       4.74517961      18.44088260      -0.07770569       0.04136571      -0.23657621
H       10.72242238       4.70809158      18.55834773       0.09521156       0.05195917      -0.97139168
H       15.28885025       7.52809692      18.41090546       0.13718070      -0.32178131       0.57729036
H        7.46895430       7.35424425      18.50043404      -0.42256033      -0.11831009       0.12981270
H        9.79075663       7.08733755      18.41683479       0.04968400       0.21648973       0.39911443
H       12.64596320       7.33034294      18.41844667      -0.06895159      -0.10366406      -0.04809918
H        8.99697148       7.18894313      13.52529448      -0.22735985       0.58629847      -0.08563111
H        8.72403764       7.89685379      13.41847467       0.22153990      -0.58519930       0.09269650
H        0.73973716       0.84452250      32.70641625      -0.12814662       0.05654756      -0.12835257
H       11.38242272       1.05145588      32.21354463       0.14837812      -0.05834939       0.12441132
H        5.02121317       7.52661510      14.65542010       0.09402422      -0.13506803       0.03557507
H       15.71510050       8.07160184      14.49280487      -0.08539637       0.06332036      -0.02231589
H        2.37169525       2.24406182      36.31063135       0.40340123      -0.20298733       0.08553984
H        1.72557672       2.56864693      36.17073690      -0.40429392       0.20118986      -0.09131093
H       10.79477747       7.40476949       8.85123114       0.59837908      -0.97469217      -0.20231447
H       10.42481412       8.00948863       8.97763734      -0.59399998       0.97813898       0.20815241
H        7.42219363       0.79900880      33.77682195       0.40425459      -0.34380871      -0.05573998
H        6.86153352       1.26987710      33.84354872      -0.40295437       0.33604965       0.04125901
H        4.19614421       6.88839589       1.67904452       0.17531300      -0.62235075      -0.08456127
H       15.19725632       7.58333395       1.82457238      -0.13365290       0.61541599       0.18209505
H        8.63088372       2.23147144      38.68798752       0.79931104      -0.63091356       0.34882906
H        8.13072879       2.69231098      38.45167465      -0.74974608       0.76765460      -0.36795136
H        5.98846571       1.41181273      16.72958766       0.84660059      -0.14674367      -0.38722515
H        5.30236517       1.58125589      16.86774471      -1.07400537       0.30307472       0.04454925
H        4.76093637       6.66501564      34.91429399       0.61485803       0.05154857      -0.16354403
H        4.05512691       6.60827591      35.10030782      -0.61620015      -0.04946186       0.16235052
H        7.58345388       0.03604124      16.07448347       0.03605973      -0.04037249       0.78315449
H        7.56448422       0.06587976      16.84708537       0.10264950      -0.13255684      -1.02850175
H        7.88173509       0.12585006      45.21500129      -0.72701395      -0.09686298      -0.08665133
H       12.72086616       9.64780674      45.14528007       0.68511212       0.18444324       0.05072298
H        7.64367644       0.82598504      11.14952259       0.15621664      -1.67328048      -0.07516235
H        7.71788399       0.02911883      11.11226948      -0.15767908       1.66888463       0.07961833
H       14.45116192       7.70461119      46.12835709       0.10530879       0.08109851      -0.02879919
H       13.98415155       7.12824318      46.12307080      -0.10502391      -0.16272822      -0.03362720
H        6.72594405       9.38925490       2.70590364       0.13727146       0.40104043       0.19524316
H        6.53046703       8.74409461       2.41514798      -0.14367248      -0.49028626      -0.21401890
H        5.59789475       2.16595866      39.90930947      -1.40013468       1.57306659      -0.50702542
H        6.04621514       1.65598966      40.07678905       1.37196183      -1.57650185       0.51993597
H       12.23583598       2.57785196       3.16852424       0.29064474      -0.92862934      -0.02763242
H        1.28666171       1.83549368       3.14225465      -0.28474122       1.01914728       0.04626160
H        9.07812902       0.67109844      30.82887719      -0.12808286       0.19505753       0.24829891
H        9.35369908       0.19896799      30.32888716       0.11904311      -0.19230208      -0.17248890
H        4.51375621       5.25650034       7.90490713       0.19219589      -0.27310801      -0.48596478
H        4.76234367       4.90266161       7.27453140      -0.19245197       0.27310079       0.48678777
H        9.76995350       8.90977471      32.73273488      -0.13196883      -0.33504948      -0.33087194
H        9.55833595       8.38095782      32.22583581       0.13306360       0.34536576       0.31388724
H        2.86175803       4.26971941      14.35645146       0.06446322       0.04131198       0.10858335
H        2.48464707       4.04234167      13.75509771      -0.06043018      -0.03704009      -0.09209358