144
Lattice="11.174675241468789 0.0 0.0 5.587337620734394 9.677552638152974 0.0 0.0 0.0 46.84306309572773" Properties=species:S:1:pos:R:3:forces:R:3 energy=38.739100943962654 pbc="T T T"
Pt       0.00327120       0.00359500      19.99244004      -0.04671258      -0.05836559      -0.00422689
Pt       8.38517487       9.67377944      20.00542947      -0.05200571       0.08060486      -1.27173102
Pt      11.17651919       9.67709151      20.00369898       0.02856393      -0.10653032      -1.41727805
Pt      13.96180745       9.67165417      20.00425228       0.04813748       0.05994888      -1.21818566
Pt      12.56219413       2.42513975      19.98992262       0.19858585      -0.10162363      -1.23480892
Pt       4.18767675       2.42099136      20.00504028      -0.08037423      -0.00617502      -0.84898090
Pt       6.97916171       2.42166871      19.98977847       0.15022726      -0.03258488      -0.04905305
Pt       9.78398693       2.41334735      20.00021319      -0.05903639       0.10933977      -0.62728596
Pt       2.79945682       4.83372270      19.99669201      -0.15409471       0.10956088      -0.61713165
Pt       5.58421373       4.85465815      20.00097160       0.01160030      -0.18666030      -0.87609524
Pt       8.37149891       4.83964431      19.99478076       0.01893000      -0.06792624      -0.92127699
Pt      11.16740544       4.84479734      20.00246247      -0.16485992      -0.05462437      -1.37035108
Pt       4.19259510       7.25129674      19.99519176       0.02170371       0.16828848      -0.11605395
Pt       6.99347956       7.26148825      20.00297362       0.03580467      -0.01251485      -0.56463641
Pt       9.77198159       7.27309394      19.99760975       0.16276884      -0.16534895      -0.32753235
Pt      12.57625380       7.25706712      19.98826557      -0.07787050      -0.06231943      -0.08269851
Pt       1.39832072       0.80009262      22.27856493       0.03077354       0.09607647       0.29498476
Pt       4.19203264       0.80097751      22.28103863      -0.06242330       0.06235620       0.20290917
Pt       6.97598413       0.80277430      22.28061063       0.11486713       0.04683547       0.26657972
Pt       9.77856436       0.80849539      22.27482708      -0.01549578       0.01422643       0.32123262
Pt       2.79271666       3.22662267      22.28737892       0.01131620      -0.04819816       0.17292856
Pt       5.59359218       3.21913334      22.27849195      -0.07961756       0.12472963       0.24526887
Pt       8.37815369       3.22341841      22.27978132       0.03207400       0.00926754       0.28992200
Pt      11.18084162       3.21970885      22.28654756      -0.05291793       0.06151313       0.18367320
Pt       4.18108043       5.64975357      22.27205392       0.17162733      -0.07096682       0.36370289
Pt       6.98960040       5.64837434      22.27740882      -0.12744394      -0.06308999       0.29549691
Pt       9.77391047       5.64529900      22.27799570       0.06709783       0.01068808       0.32996359
Pt      12.57506951       5.64326790      22.29229928      -0.09665703       0.04064529      -0.00510621
Pt       5.59237302       8.07000984      22.28133036      -0.03653049      -0.08892881       0.22211170
Pt       8.37717746       8.06002149      22.27767505       0.06886701       0.04855914       0.43566293
Pt      11.18084076       8.06790651      22.28762181      -0.02510117      -0.13228378       0.13538711
Pt      13.98060959       8.07186199      22.27894234      -0.10816966      -0.08151246       0.31767112
Pt      11.18059342       1.61301672      24.56699575      -0.13583139       0.01068448      -0.28123859
Pt       2.79153035       1.61636897      24.56833580       0.06193557      -0.05229727      -0.38928407
Pt       5.58432040       1.60824807      24.56045861       0.04905022       0.09563991      -0.22579969
Pt       8.37699080       1.61898178      24.56472264       0.06947482      -0.11455063      -0.30557820
Pt      12.57024567       4.02988141      24.56316467      -0.03516987      -0.03112218      -0.18155332
Pt       4.19553773       4.02452954      24.56325917       0.00846356       0.09251653      -0.19618984
Pt       6.99139040       4.03926198      24.56655433      -0.12723979      -0.08227068      -0.34341303
Pt       9.76867125       4.03709461      24.56638542       0.10585490      -0.06276500      -0.29549563
Pt      13.95616254       6.44895497      24.56007620       0.18410359       0.02515336      -0.16434467
Pt       5.58462407       6.45340519      24.55766942      -0.05906493      -0.06156738      -0.34123582
Pt       8.37085419       6.45021033      24.56734944       0.18331942       0.09700645      -0.40749493
Pt      11.18189225       6.44561627      24.56358038      -0.15343779       0.04658582      -0.30691209
Pt      15.37065323       8.86018062      24.55990090      -0.10981748       0.16676947      -0.13204776
Pt       6.98616051       8.87407227      24.56774934       0.03033439      -0.03853981      -0.33896244
Pt       9.78030388       8.87603164      24.55567669      -0.10365120      -0.15495089      -0.11417525
Pt      12.56698407       8.86694594      24.55687759       0.08352049       0.04423840      -0.23413856
Pt       5.59813441       9.67468293      26.84962829      -0.13072518       0.01325635      -0.44614044
Pt       8.38637273       9.67252176      26.84251766      -0.09023724       0.05387079       0.74846131
Pt       5.57702196       0.00360573      26.84546810       0.01968000      -0.01954913      -0.23270002
Pt       8.37026636       0.00462029      26.83116257      -0.04292560      -0.11153112       1.85820711
Pt       1.40226205       2.41794235      26.84316083      -0.12994125      -0.01790722       0.60009551
Pt       4.18271972       2.41807943      26.84592586       0.09816498       0.20546407       1.39113688
Pt       6.98636665       2.42213745      26.84346416      -0.11894207       0.10217231       0.84184867
Pt       9.76395748       2.41602491      26.85071023       0.14312175       0.01507232       0.77138114
Pt       2.79411164       4.83550544      26.84022979       0.02001681       0.11263027       0.69665617
Pt       5.59370020       4.84607445      26.84491228       0.12664869      -0.00358643       1.35472727
Pt       8.38864338       4.84166833      26.85104250      -0.01897371      -0.04935490      -0.08827035
Pt      11.16939288       4.84861697      26.84210169       0.15159740      -0.19027990       0.38935325
Pt       4.20305584       7.26082608      26.84514901      -0.11843685      -0.02063568       0.60978651
Pt       6.98809639       7.25098788      26.83809882       0.04828918      -0.01243797       0.98120016
Pt       9.78258466       7.24417882      26.84474601      -0.01957921       0.15295932       1.24434900
Pt      12.56932207       7.26142566      26.84578933       0.05660798       0.10647556       0.44583705
H        5.67677247       9.61487878      28.35052687      -0.02595837      -0.00085181       1.12938774
H        2.66922439       0.14607673      28.39489950       0.13497032      -0.15438859      -0.04869490
H        5.55913139       0.14228458      28.35255873      -0.02709532      -0.01991294       0.92160714
H       13.84150489       9.67531795      28.47799770       0.13449390      -0.00158251      -1.41160238
H        1.43985272       2.30055571      28.39256956      -0.05209004       0.11431897       0.12311111
H        4.15595193       2.52595448      28.45216270       0.04477756      -0.11290924      -0.75750339
H        6.95187167       2.50236540      28.41112641       0.02725164      -0.05890244      -0.16316377
H        9.74633973       2.41768574      28.41901916       0.02589744      -0.00256596      -0.15586466
H       13.98059941       4.90904827      28.40098296      -0.01129177      -0.04986809      -0.03269286
H        5.76769323       4.94537939      28.44401126      -0.21392763      -0.13266765      -0.76433837
H        8.46987588       4.95620152      28.36168318      -0.00350416      -0.05111996       0.83528024
H       11.24314239       4.87341204      28.38391903      -0.02628902      -0.02596429       0.31206587
H        4.26803893       7.18828511      28.39932002      -0.05778966       0.05977610       0.05676559
H        7.02864492       7.13632800      28.41114828      -0.02463297       0.13948698      -0.27455837
H        9.80792680       7.19841486      28.44578452      -0.02493327       0.08997010      -0.64171219
H       12.50618924       7.41559468      28.38447953       0.04539386      -0.09154954       0.23872900
H        5.66773339       9.62640986      18.47093358      -0.03466567       0.01872946      -0.69900149
H        8.34635728       9.61906537      18.40878947       0.06850345       0.06814941       0.58359164
H       11.21692323       9.62276334      18.39192881      -0.11109969      -0.03487316       1.01641059
H       13.90555957       9.62608421      18.40951479       0.15511544       0.06037079       0.82628477
H        1.48152550       2.35038680      18.39326558      -0.10805704       0.09529769       0.64092851
H        4.16733049       2.41564102      18.43072026      -0.06221376       0.05362602       0.36458245
H        7.06754922       2.35252183      18.46339795       0.02375545       0.09068282      -0.37277117
H        9.81702088       2.51632838      18.44551643      -0.02110207      -0.10284670      -0.05475550
H       13.92879603       4.92904545      18.44127657       0.02012814      -0.07185206      -0.04447032
H        5.54261823       4.78107570      18.43077653       0.03894553       0.07319957       0.18211254
H        8.36741116       4.80253890      18.41712153      -0.02341118       0.02394957       0.29688120
H       10.96146402       4.79633972      18.40231347       0.27385131       0.06892100       0.79174995
H       15.32898646       7.42577455      18.47617001       0.04217124      -0.07572491      -0.61243916
H        7.23506740       7.28177575      18.47061860      -0.18858400      -0.02889766      -0.19752245
H        9.77596691       7.19690215      18.45673864       0.03125639       0.05080115      -0.31784493
H       12.61732409       7.29625290      18.45704670      -0.03380898      -0.04549439      -0.49913627
H        9.03395674       7.32207019      13.60619577      -0.54924065       0.82363522      -0.58898836
H        8.66245364       7.88118825      13.20400509       0.54347599      -0.82330769       0.59625095
H        0.74402197       0.87395441      32.78204958      -0.26136938       0.20373268      -0.36881682
H       11.50827895       1.18636181      32.22004806       0.26568395      -0.20907930       0.35520282
H        5.10968955       7.51899075      14.73312049      -0.25587311       0.19397072      -0.01513429
H       15.70489761       8.00399428      14.67415153       0.25911760      -0.23701100       0.03527168
H        2.37813357       2.16905936      36.35717251       0.15771970      -0.09928855       0.01508183
H        1.75049605       2.56195156      36.29240652      -0.15891810       0.09753712      -0.02107405
H       10.80291310       7.35779376       8.80531148       0.43622959      -0.40407461      -0.04018583
H       10.26839851       7.85681949       8.85699089      -0.43263701       0.40739802       0.04547331
H        7.61062745       0.93290022      33.80143136       0.58778149      -0.41539493      -0.03291089
H        7.01371819       1.35357755      33.82716335      -0.58358723       0.40858716       0.01922851
H        4.22459554       7.02337419       1.18142996       0.65795356      -0.40114483       0.48398733
H       14.86754346       7.49585122       1.33713178      -0.16557468       0.32367697       0.74426550
H        8.63353577       2.45981460      38.62473404       0.38609746      -0.12736012      -0.03367965
H        7.97204896       2.78186087      38.66222627      -0.33906195       0.21883021       0.01644889
H        6.00443239       1.48026499      16.86152570       0.18840916       0.02544004      -0.40945131
H        5.32929978       1.68371589      17.07796185      -0.33104575       0.13131833      -0.17009546
H        4.70939042       6.62862755      34.93575699       0.26372322      -0.05102509      -0.07869376
H        4.01129686       6.76800860      35.14104522      -0.26514119       0.05394021       0.07810163
H       13.44438114       9.57529899      16.23958241      -0.81077689       0.21750891       0.75668573
H        7.34267839       0.05919171      16.81059320       0.88719934      -0.37310103      -1.08814311
H       13.64048819       9.66834869      44.99529171      -1.27778208       0.08420158       0.35912478
H        7.30019920       0.02118222      45.22200013       1.24824965      -0.02450776      -0.39035827
H        7.72088135       0.80998190      10.90667624      -0.19011021      -1.89433289       0.56441224
H        7.64276163       0.03424580      11.13721068       0.18856832       1.89079225      -0.56142074
H       14.57972707       7.72270519      46.22605033      -0.25848511      -0.10047306      -0.53414905
H       14.30215756       7.07235401      46.45769250      -0.19490403       0.12399995      -0.65925407
H        6.67293330       9.63663289       2.48438220      -0.02434269      -0.15670207      -0.03956825
H        6.67302547       8.89651335       2.37706300      -0.00783467      -0.03823591      -0.01471777
H        5.70035024       2.17797183      39.99975565      -0.46456417       1.17143536      -0.13587689
H        5.95118145       1.51118597      40.08563537       0.42569065      -1.17667985       0.15587288
H       12.29058712       2.50347411       3.20524186       0.34778416      -0.93022442      -0.30824265
H        1.36359744       1.80114876       2.97654752      -0.32568809       1.11931062       0.35793462
H        8.97223999       0.75692865      30.71009458       0.12576012      -0.22695000      -0.07854618
H        9.24587101       0.18986738      30.28879776      -0.08308700       0.24868560       0.27254030
H        4.63438183       5.28147794       7.92991033       0.29794973      -0.40468988      -0.84410328
H        4.86965331       4.96142171       7.26270178      -0.29828218       0.40492770       0.84459335
H        9.56638080       8.92053522      32.65875900       0.06851707      -0.33158928      -0.56937164
H        9.64673520       8.52895114      32.00349994      -0.07120465       0.34037602       0.54683411
H        2.80494388       4.38866839      14.48005459       0.03963304       0.02511737       0.12934271
H        2.58457733       4.26506210      13.77882294      -0.03507011      -0.01934318      -0.10972106
H        8.84614636       8.07672163      42.90004510       0.15397233       0.00729499       0.51203758
H        8.63591804       8.06711141      42.19639147      -0.15241759      -0.00615728      -0.51299864
H       10.10552393       0.97661892      15.41580310       0.07538629       0.00561143       0.31108087
H        9.95646513       1.02819766      14.69197557      -0.05503884       0.04631534      -0.29111087
H       13.61661054       9.59718550      38.86675790       0.00575310      -0.04676452       0.01462469
H       13.23080200       9.55566132      38.22873056      -0.01452005      -0.04164905      -0.02232772
144
Lattice="11.174675241468789 0.0 0.0 5.587337620734394 9.677552638152974 0.0 0.0 0.0 46.84306309572773" Properties=species:S:1:pos:R:3:forces:R:3 energy=38.83097672017462 pbc="T T T"
Pt       0.00561719       0.00367929      19.97503633       0.04383628      -0.18449210      -0.98658121
Pt       8.39276247       9.66598706      20.01638181      -0.12293628       0.31784981      -0.59087938
Pt      11.17659452       9.67577481      20.01072668       0.07658880      -0.11408680      -0.64314091
Pt      13.95285617       9.66149791      20.00954720       0.19817628       0.20433742      -0.12407656
Pt      12.55382076       2.43612074      19.97069014       0.20572580      -0.09919034       0.41478017
Pt       4.18306175       2.42235872      20.01151775      -0.10362035      -0.04320045      -0.33254728
Pt       6.97507388       2.42199800      19.97232180       0.24303354      -0.16178256      -0.39124942
Pt       9.79814785       2.39995252      20.00152505      -0.17240714       0.27848548      -0.55363572
Pt       2.80756923       4.82327749      19.99174352      -0.37076622       0.31002596      -0.58643138
Pt       5.57373645       4.87953681      20.00106329       0.16446602      -0.43295375      -0.22843148
Pt       8.35428976       4.83470689      19.98485877       0.05767422      -0.09821435      -0.34889874
Pt      11.15517213       4.85657052      20.00023415       0.12492502      -0.04409288       0.28220353
Pt       4.19829618       7.23836521      19.98292826      -0.07016541       0.54100537      -0.99009871
Pt       7.00733996       7.26418733      20.00495058       0.05039285       0.05787014      -0.89584053
Pt       9.76019736       7.29848771      19.98891809       0.43629181      -0.58793551      -0.90384799
Pt      12.58390938       7.25754321      19.96926413      -0.16246417      -0.16347435      -0.26580247
Pt       1.40362981       0.78891840      22.27321925       0.00030159       0.23063388       0.32196617
Pt       4.19684917       0.79302846      22.27925798      -0.15376535       0.21254103       0.25910321
Pt       6.96627268       0.79462377      22.28190833       0.24668837       0.18794097       0.25278780
Pt       9.77295626       0.81236479      22.27214018       0.09532288       0.03290318       0.31634882
Pt       2.79091216       3.22805211      22.29531765       0.06590997      -0.14362338       0.12403414
Pt       5.60632536       3.20983079      22.26873143      -0.20273612       0.25344291       0.29703727
Pt       8.36852584       3.21767558      22.28342682       0.14074245       0.04491846       0.19559720
Pt      11.19252873       3.20564822      22.29802693      -0.22164479       0.17243285       0.15599115
Pt       4.16429004       5.65626419      22.25879663       0.40306956      -0.11277939       0.54002041
Pt       6.99401336       5.65462446      22.27139018      -0.27766863      -0.14206786       0.35788885
Pt       9.76609467       5.64453253      22.26976135       0.19133843       0.02632758       0.49672225
Pt      12.58246323       5.63643656      22.31202847      -0.24948779       0.13174437      -0.41608295
Pt       5.59667597       8.08394338      22.28227752      -0.03489090      -0.24253784       0.05106109
Pt       8.37774315       8.05307602      22.27410089       0.11831781       0.08374675       0.59496230
Pt      11.19268994       8.07510166      22.29837853      -0.08916509      -0.41589087      -0.08523568
Pt      13.99755232       8.08463914      22.28024759      -0.25777754      -0.24768570       0.26317737
Pt      11.19147676       1.61653846      24.57198544      -0.36339408      -0.07005074      -0.23073956
Pt       2.78825685       1.61904362      24.57585960       0.12092774      -0.12463167      -0.60716248
Pt       5.58023178       1.60260752      24.56007951       0.11392816       0.18335360      -0.21923515
Pt       8.36816322       1.63322280      24.56605797       0.21533453      -0.28011993      -0.38806382
Pt      12.57165911       4.02467213      24.56696971      -0.10671416      -0.04187119      -0.05395743
Pt       4.20695676       4.01299347      24.56263632      -0.02289156       0.26111302      -0.26068160
Pt       6.99979727       4.04695897      24.57386677      -0.26676765      -0.08993411      -0.40067148
Pt       9.74980333       4.04583383      24.57799299       0.30547023      -0.08774893      -0.34504002
Pt      13.93640347       6.44541538      24.55741022       0.50317729       0.04942252       0.04407925
Pt       5.58003869       6.45622090      24.55037245      -0.13318238      -0.13302915      -0.43272570
Pt       8.35640268       6.45028211      24.57348640       0.40853137       0.16109917      -0.57473314
Pt      11.19537628       6.43988804      24.56682482      -0.41777191       0.05167687      -0.37705335
Pt      15.37735394       8.84137430      24.55538457      -0.13570078       0.41271248       0.08561388
Pt       6.99467710       8.87821923      24.57389886      -0.04746025      -0.09042750      -0.34379765
Pt       9.78360747       8.88510076      24.54547240      -0.18348859      -0.35354882       0.10045969
Pt      12.56068500       8.86140986      24.54776831       0.14299963       0.12480804      -0.10708029
Pt       5.61106613       9.67174322      26.86165096      -0.12177902      -0.07884623       1.26996183
Pt       8.39257794       9.66081001      26.84442789      -0.11753671       0.04029433       0.46287420
Pt       5.56039716       0.01114210      26.84728340       0.00269632       0.24876222       1.32468677
Pt       8.35541394       0.01475540      26.81142009       0.26861423      -0.26470435      -0.25558233
Pt       1.41285182       2.41355782      26.84148394      -0.34684750      -0.08271445       1.10792696
Pt       4.17009368       2.41819743      26.84345566       0.29788187       0.23658188       0.10719778
Pt       6.98953119       2.42525230      26.84672817      -0.28048089       0.21895465       0.13000810
Pt       9.73965026       2.40729847      26.86644814       0.44804201       0.10264256       0.28482991
Pt       2.79763030       4.83029302      26.83822946      -0.00407417       0.25422660       0.36024964
Pt       5.59924874       4.86250873      26.85247415      -0.05543093      -0.30201954      -0.17311804
Pt       8.40481505       4.85196217      26.86533567       0.10549314      -0.10005911       1.21649730
Pt      11.16274564       4.86701490      26.84885472       0.50068766      -0.52041423       0.88818842
Pt       4.21903565       7.26100342      26.85009737      -0.24267411       0.03130113       0.60799372
Pt       6.99589940       7.24012423      26.83473691       0.05936138       0.08804332       0.69004351
Pt       9.79047488       7.22363603      26.85064990      -0.11771463       0.51066178       0.12191530
Pt      12.56419008       7.27058292      26.85035170       0.16397110       0.16294187       0.54873568
H        5.77762785       9.59674296      28.46571248      -0.26751995       0.06586241      -0.79816228
H        2.49961112       0.29321233      28.33181739       0.25987145      -0.26529416       0.29358298
H        5.51058319       0.33404296      28.43034978      -0.00766652      -0.35570985      -0.76869845
H        8.05790958       0.02509133      28.29180522       0.03572471       0.01934293       0.97905689
H        1.47900516       2.14074743      28.40244283      -0.12883234       0.36382297      -0.34360662
H        4.07995904       2.65811875      28.34909922       0.05576029      -0.05177662       0.66077071
H        6.89668430       2.64062381      28.35873989       0.03553856      -0.07193305       0.59774166
H        9.77617665       2.44876597      28.40936857      -0.00619559      -0.04406074       0.27862662
H       13.99903460       4.98120380      28.37614391      -0.01363765      -0.06919559       0.28980887
H        5.95673399       4.98311462      28.32650646      -0.09695811      -0.05773901       0.78166169
H        8.65894817       5.01698895      28.43139588      -0.23508807      -0.21906058      -0.50426179
H       11.38286504       4.88823744      28.41076387      -0.15984036      -0.03267024      -0.24907333
H        4.38915626       7.13711941      28.39509578      -0.14195190       0.10678460       0.03715964
H        7.09301044       6.98850603      28.36901733      -0.04064966       0.23957258       0.09177040
H        9.80446982       7.16005987      28.38349542       0.01066571       0.10332673       0.48006538
H       12.43671760       7.54492530      28.37651509       0.08990403      -0.16748554       0.12686853
H        5.76220198       9.54369469      18.40228456      -0.17666617       0.14523494       0.41983777
H        8.34384409       9.59101299      18.47066975       0.08932990       0.08034235      -0.24854290
H       11.27269354       9.46015889      18.47491572      -0.12578583       0.11404540      -0.02323146
H       13.91302484       9.60329516      18.48272440       0.10873042       0.03760290      -0.44867915
H        1.59732122       2.33551972      18.48048996      -0.05045250       0.02834384      -0.99640644
H        4.07451917       2.44583146      18.47364358       0.04036195      -0.00017329      -0.27595165
H        7.17253855       2.25993598      18.43965357      -0.10199593       0.14623792      -0.00959639
H        9.83923238       2.64843311      18.46371133      -0.02300340      -0.24957675      -0.09409287
H       13.91658737       5.03787438      18.44635344       0.02020244      -0.16452928      -0.03178964
H        5.49690005       4.70135846      18.47936106       0.04625235       0.08434401      -0.53886032
H        8.35356539       4.73905114      18.43994291      -0.08132426       0.04605283      -0.22745523
H       10.71375418       4.70299542      18.55477056       0.13271829       0.06645402      -0.84480262
H       15.28942544       7.51991003      18.42507117       0.12635303      -0.27745986       0.34724653
H        7.47093401       7.35718376      18.50480793      -0.40808013      -0.11817331       0.07099716
H        9.79016943       7.08223625      18.41860460       0.05075229       0.21982934       0.37935731
H       12.64559684       7.32834858      18.42066097      -0.06576728      -0.10022444      -0.10810127
H        8.99035165       7.18949233      13.51881459      -0.02187366       0.05581300      -0.00418061
H        8.73312025       7.88860156      13.43239089       0.01622623      -0.05459018       0.01097167
H        0.73463233       0.84160246      32.70071194       0.07773474      -0.02305148       0.06149694
H       11.37844153       1.04548889      32.21736602      -0.05682961       0.02145329      -0.06460334
H        5.01823636       7.53059754      14.65069385       0.23507367      -0.29901108       0.08705370
H       15.72077281       8.07364026      14.48216691      -0.22615194       0.22601104      -0.07427070
H        2.37194804       2.24753244      36.30946546       0.34707889      -0.17198393       0.07567117
H        1.72325303       2.56841064      36.16460076      -0.34790885       0.17021295      -0.08135846
H       10.79705410       7.40439668       8.85439016       0.40711159      -0.67734355      -0.14367659
H       10.42947351       8.01907365       8.98602444      -0.40271065       0.68088961       0.14952971
H        7.41192790       0.79183713      33.77421000       0.37152290      -0.31991109      -0.05468300
H        6.85341001       1.26619144      33.84489991      -0.37039393       0.31207925       0.04016063
H        4.19350008       6.88296909       1.70854493       0.15770274      -0.67135209      -0.10388003
H       15.22031910       7.58270888       1.85461311      -0.12510321       0.66513622       0.18307208
H        8.62779897       2.21802427      38.68930422       0.86100650      -0.71761370       0.41619709
H        8.14322704       2.68331837      38.43787997      -0.81071413       0.85689658      -0.43570328
H        5.98711722       1.40723577      16.71678825       0.70664513      -0.11037901      -0.34644976
H        5.29704106       1.57782330      16.85100020      -0.93609786       0.27178079       0.01569916
H        4.76498553       6.66657798      34.91569677       0.58883822       0.05707052      -0.15303053
H        4.05822593       6.60062084      35.09756693      -0.59033561      -0.05499385       0.15180771
H        7.56738522       0.04347508      16.06714230       0.07423598      -0.05086979       0.91972482
H        7.57723536       0.06358472      16.84465747       0.06768893      -0.12364822      -1.16339803
H        7.86437925       0.13580917      45.22322133      -0.37421715      -0.02990888      -0.06039291
H       12.71760052       9.64884275      45.13979955       0.33302602       0.11685871       0.02527240
H        7.64029065       0.81713199      11.16370462       0.12353174      -1.17837369      -0.07513535
H        7.72152385       0.03949533      11.11214516      -0.12485715       1.17411029       0.07946612
H       14.43870336       7.69982602      46.12066643       0.11824042       0.08838554      -0.01685693
H       13.96358309       7.13055338      46.10316008      -0.11087858      -0.17084365      -0.02835516
H        6.73144053       9.37286089       2.71946507       0.15550624       0.42221066       0.21516201
H        6.52291561       8.73746829       2.41804642      -0.15932947      -0.50416511      -0.23203591
H        5.58399755       2.16847977      39.90280839      -0.90085447       0.94976819      -0.31414306
H        6.05712537       1.65979412      40.07616664       0.87215167      -0.95300621       0.32715157
H       12.23327286       2.57495227       3.16918608       0.17149517      -0.53769636      -0.00654577
H        1.28061762       1.84437173       3.15311205      -0.16657819       0.62165374       0.02357548
H        9.08286910       0.66575739      30.83391402      -0.20837481       0.32662347       0.39220947
H        9.35935583       0.20146473      30.33484402       0.19939910      -0.32380861      -0.31804702
H        4.51165332       5.25463824       7.89814553       0.02523847      -0.03580802      -0.06185046
H        4.75691333       4.90217835       7.28324046      -0.02547269       0.03579850       0.06248733
H        9.77828690       8.90789284      32.73344731      -0.07456483      -0.18065344      -0.17619309
H        9.55316419       8.37763586      32.24382057       0.07584961       0.19094762       0.15981258
H        2.86654224       4.26183832      14.34852930       0.03427384       0.02252132       0.05864147
H        2.47807446       4.03324326      13.75291136      -0.03028760      -0.01842915      -0.04215067