144
Lattice="11.174675241468789 0.0 0.0 5.587337620734394 9.677552638152974 0.0 0.0 0.0 46.84306309572773" Properties=species:S:1:pos:R:3:forces:R:3 energy=40.29655511214803 pbc="T T T"
Pt       5.64503112       9.67244956      19.74539841      -0.26481208       0.11624935       0.10136781
Pt       2.78834127       0.03068129      19.79190689       0.23921417      -0.70326644       0.27265960
Pt       5.55307777       0.00192828      19.86606443       0.34294611      -0.03639834      -0.66520202
Pt      13.98060388       9.57931749      19.72992955      -0.21228649       1.03496885       0.79008156
Pt       1.47663749       2.41220001      19.87941348      -0.60105586       0.17168646      -0.10665271
Pt       4.19046079       2.36359017      19.96979835       0.62058669       0.69685876      -0.82880831
Pt       7.05754354       2.37921587      19.92903481      -0.32260817      -0.14973824      -0.78553814
Pt       9.73611162       2.42071653      19.71025449       0.56079775      -0.00547002       0.53152114
Pt      13.97343328       4.85438987      19.93479146       0.07240150      -0.31668973       0.78404129
Pt       5.62151883       4.82645477      19.91241949      -0.24053058       0.02243545      -0.04236844
Pt       8.36616341       4.90152250      19.81923678       0.38960597      -0.63258529       0.10917393
Pt      11.23195499       4.85173864      19.69382925      -0.34766614      -0.62214530       1.64692438
Pt      15.29538155       7.30717802      19.89060217       0.70895553      -0.70088893      -0.17623679
Pt       6.92454608       7.21287987      19.79146482       0.30560547       0.45665291      -0.11069500
Pt       9.86747746       7.24511935      19.77199444      -0.70042950       0.43847775      -0.40452018
Pt      12.59371175       7.24897244      19.79308106       0.20495397       0.03856346      -0.72403657
Pt       1.33803244       0.76502703      22.14164681       0.45962304      -0.02727581       0.72628194
Pt       4.18838491       0.77981990      22.34072873      -0.52371806      -0.23704956       0.04463358
Pt       6.89295646       0.86087669      22.35785960       0.55352670      -0.25339791      -0.41475907
Pt       9.74498213       0.87912443      22.12810312      -0.16861451      -0.33853897       0.50066710
Pt       2.80602851       3.21528855      22.32988520      -1.00722718      -0.08719409      -0.13837679
Pt       5.44569392       3.29297492      22.26100368       1.13538635      -0.40740547       0.12057395
Pt       8.33955766       3.22737276      22.31401764      -0.08164770      -0.09553835      -0.67600965
Pt      11.17521421       3.19090248      22.06650120      -0.00765160       0.24273941       0.87739676
Pt       4.06708782       5.67789274      22.31948033       0.53475481       0.18412803      -0.12424497
Pt       6.95825492       5.66518047      22.26372893      -0.17553771       0.07654560      -0.07653532
Pt       9.73981926       5.55364905      22.14145918       0.15380958       0.47904155       0.40126362
Pt      12.50116923       5.65822742      22.31670173       0.14613920      -0.42424569      -0.32295707
Pt       5.47403014       8.04894411      22.21674389       0.75841355       0.19295847       0.18458670
Pt       8.37354974       8.03453126      22.13797194      -0.33692047       0.09096512       0.56321174
Pt      11.12496944       7.96025197      22.30761205       0.17776942       0.88816530      -0.67000872
Pt      13.97023727       8.17415122      22.22070178      -0.87213731      -0.23801038       0.54422903
Pt      11.33510325       1.63980162      24.59129354      -1.38754630       0.08171249      -0.39546990
Pt       2.74931517       1.69502650      24.70943768       1.22663224      -1.04418111      -0.62479275
Pt       5.59569624       1.58772566      24.70335133      -0.32823271       0.45967600      -0.15077028
Pt       8.52240937       1.66041464      24.67280557      -0.87590730      -0.43179420      -0.46871138
Pt      12.65119772       4.05885983      24.68676218      -0.45778906       0.54014951      -0.66171306
Pt       4.25166687       4.02043786      24.62898431      -0.54163867      -0.04105358       0.32102591
Pt       6.91314750       4.02767976      24.54453968       0.68032014      -0.32835639       0.43946147
Pt       9.82408308       3.99805920      24.51337004       0.24771553      -0.02213849      -0.13956206
Pt      13.85351797       6.54606654      24.60232765       0.27884001      -0.02268665      -0.09205167
Pt       5.52920792       6.37951787      24.66383557      -0.05400577       0.68680161      -0.87755972
Pt       8.36048431       6.39720242      24.60881994      -0.32174581       0.28422698      -0.99889964
Pt      11.04868545       6.43146443      24.56889695       0.69890815      -0.12857239       0.52821702
Pt      15.32730907       8.91840308      24.61014153      -0.37735674      -0.24561571      -0.65792942
Pt       6.86140764       8.85846972      24.53225362       1.14223015      -0.17085420      -0.34563830
Pt       9.70010153       8.76930809      24.64517939      -0.55027372       0.94446498      -0.03857272
Pt      12.38762047       8.96388088      24.65838021       1.36032581      -0.84306324      -0.01327358
Pt       5.58897208       9.61571025      26.89741509       0.48884106       0.90893698       0.82256949
Pt       2.82715411       0.03987618      27.06659205       0.06646430      -0.01542302       0.35218793
Pt       5.64503967       0.03249093      27.13067003       0.01523096      -0.39629343       0.09267979
Pt      13.99795067       9.57048936      27.02134009      -0.45614973       0.76879925       0.27853405
Pt       1.48242842       2.52977009      27.03142016      -0.19091703      -0.58495766      -0.88641620
Pt       4.31936130       2.38012874      27.04781111      -0.40823156       0.64055854       0.14289704
Pt       7.11993824       2.51250577      27.09559999      -0.71057945      -0.67506325      -0.20504986
Pt       9.82816423       2.33833935      26.98982181       0.52565461       0.24577279       0.79144037
Pt       2.93074940       4.85387112      27.00397453       0.00233559      -0.02299955      -0.32242355
Pt       5.72723145       4.91083610      27.08827392      -0.45021203      -0.61629295      -0.95751899
Pt       8.48783412       4.82114757      26.84142676      -0.76386297      -0.10550831       0.19795877
Pt      11.09053013       4.82697816      26.91395007       1.22192156       0.10937396       0.26249447
Pt       4.23849794       7.30041811      26.93774782      -0.27244055      -0.84339392       1.23610938
Pt       6.99425340       7.25102671      26.85467260       0.32046336       0.52918321       0.53165531
Pt       9.70427462       7.30648490      27.07994284       0.67826861      -0.28678086       0.68494064
Pt      12.62110811       7.14884668      27.01067369      -0.81316131       0.53682607      -0.66603947
H        0.10240824       0.05451870      28.46999928      -0.05191032      -0.10011465      -0.34009424
H        8.53944755       9.62916963      28.64694102      -0.16654399       0.08609031      -0.57700086
H       11.25285191       9.63198209      28.69001435      -0.00270994       0.05356611      -0.16224717
H       14.02813189       9.66515396      28.58715791      -0.03275817      -0.07944761      -0.24817292
H        1.65718395       2.53511428      28.51578816      -0.00143236      -0.00975399       1.30085516
H        4.22986930       2.56650834      28.58944155       0.09477730      -0.15980050       0.04729699
H        6.88448496       2.75918900      28.60895317       0.16774058      -0.14947650       0.02392926
H        9.89754094       2.39296946      28.58535636      -0.05411710      -0.09044731      -0.64653713
H        3.28820633       4.76189415      28.49081124      -0.14967498       0.08348450       0.45104685
H        5.65688330       4.97204817      28.59083398       0.09483798       0.02071255       0.91753834
H        8.64635205       4.66217057      28.35657435      -0.09530772       0.06388215       0.53325325
H       11.14533029       4.64661079      28.46198717      -0.01165841       0.14753197       0.00994837
H        4.26163738       7.26006039      28.54855731      -0.03075040       0.05636938      -0.82948422
H        7.13470600       7.29924340      28.39968572      -0.12018083       0.00611820       0.14487910
H        9.57410843       7.11053797      28.66993194       0.19118159       0.18627593      -0.82375401
H       12.54244187       7.10939459      28.52369446       0.03834749      -0.03305513       0.78649408
H        0.17873519       0.06499835      18.20632733      -0.05605340      -0.06855590      -0.14357504
H        3.01837990       0.00695045      18.26887489      -0.13902985       0.06519829      -0.25428882
H        5.51647657       0.10818168      18.26217703       0.09429342      -0.11312392       0.90941882
H       14.11418227       9.49582734      18.22306323      -0.06826562       0.01108994      -0.69299591
H        1.52391143       2.47795809      18.34226348       0.01492397       0.01233975      -0.38543129
H        4.48158232       2.61973546      18.42224798      -0.25018919      -0.19436488       0.54238403
H        7.23541524       2.23824188      18.33195481      -0.20750655       0.15242581       0.84322679
H        9.84749973       2.28410773      18.18800881      -0.06250172       0.08103064      -0.36877155
H       13.94065523       4.88826344      18.42740057       0.06421793      -0.05683373      -0.93376923
H        5.80412990       4.91426037      18.37461765      -0.11230657      -0.07851790      -0.09737694
H        8.65726911       4.75995613      18.30719409      -0.19593915       0.06972292      -0.19733836
H       11.06557257       5.41669528      18.33317251      -0.01646406       0.26081067      -1.52970243
H        4.39141777       7.08497645      18.37950643      -0.13338421       0.10012802      -0.13970271
H        6.97186823       7.19083374      18.22329975      -0.02753292       0.01154888       0.27454138
H        9.77496545       7.55816220      18.21677353       0.10328303      -0.28174150       0.54265350
H       12.90530323       7.12891033      18.21355192      -0.37398061       0.18089846       0.92967165
H        4.04121976       2.12545688      11.26138129      -1.46899378      -0.71927643      -0.42933905
H        3.34398210       1.78427726      11.05989975       1.47189522       0.72252584       0.42104414
H       11.12228652       0.84846215      37.94275400       0.06664968      -0.14440602       0.47373658
H       11.03135651       1.05748289      37.24304687      -0.05797941       0.13600391      -0.46976373
H        6.09414115       6.17701856      12.62296760      -0.11108452       0.00935676      -0.08422677
H        5.48060416       6.22969150      12.19102447       0.10878004      -0.00801002       0.07159314
H        3.75943141       1.92854221      37.23168294      -0.16412176      -0.39268950      -0.27291414
H        3.90012606       2.53376230      37.62416094       0.00422972       0.41086516       0.24402471
H        8.25538861       6.45354155       9.31134440       0.25808120       1.03564501       0.51342595
H        8.42759154       7.14162713       9.64610902      -0.27219629      -1.04404974      -0.51141226
H        6.17514435       2.09070942      38.05970854       0.54520327      -0.96678704      -0.17688265
H        6.50785956       1.40062090      37.91992842      -0.38996130       0.93161619       0.21149382
H       13.06525864       8.69815723       6.18948195       0.44144920      -0.23576376      -0.22238013
H       13.67956328       8.37234060       5.87423300      -0.43883309       0.23210661       0.23074265
H       11.48149944       5.65815566      39.10733356       0.23718429      -0.01089608      -0.26906469
H       11.95345359       5.67187217      38.51459755      -0.20911607      -0.01375077       0.28386214
H        5.39462798       4.57610559       7.12250730       0.98021489       1.10457897       0.26113206
H        5.90936589       5.16398730       7.26464912      -0.95528752      -1.09678125      -0.26270685
H        6.34487839       5.44672157      36.68238694       1.27610624      -0.24563807       0.48441952
H        7.07435108       5.30779381      36.95471531      -1.27901924       0.24520716      -0.46805444
H       13.01163939       6.67354473      11.18593514       0.17423648      -0.33097917      -0.25010151
H       12.72747024       7.21162491      11.60179453      -0.16916344       0.30434716       0.25036249
H        5.10020017       0.00141264      42.35511397      -0.65917075       0.12060095      -1.05891097
H        4.73535002       0.05589002      41.63455253       1.34662592      -0.22920486       2.95694351
H        7.71996388       0.51028165      10.34039939      -0.51763535      -0.76187503       0.93438011
H        7.40815092       0.04754426      10.89730727       0.52571839       0.79020524      -0.94409114
H        4.24454027       4.67270698      39.14275999       0.24420983       0.16610458       0.35905999
H        4.65256294       4.93295916      39.73076352      -0.24528790      -0.15947217      -0.36804292
H        8.68225826       7.07416428       3.85171923       0.84786713       0.51473796      -1.33438313
H        8.32077937       6.85486265       4.42131575      -0.84997821      -0.51604617       1.33894753
H        4.31968006       0.15185004      40.58082495      -0.47399035       0.15308890      -1.02129269
H        4.32515078       0.00502336      39.85378320      -0.18561926      -0.00679260      -0.87443739
H        4.24407515       2.70578322       5.49518840      -0.22540040       0.01001033      -0.16336817
H        3.62981004       2.73918816       5.05614988       0.22550556      -0.00888213       0.16796890
H       13.62956199       7.58843769      37.02683349       0.02641603      -0.04934616       0.03911651
H       13.32918432       8.16974434      36.66668505      -0.03194930       0.05447731      -0.02811476
H        5.98039944       9.14607402       8.58351069       0.92698228      -0.88530624      -2.18062425
H        5.72727512       9.38727362       9.18178666      -0.92785513       0.87944847       2.18854833
H       10.11084037       7.72098460      37.22737379       0.08193875      -0.02652479      -0.32918170
H        9.99606447       7.81199467      37.95209402       0.01781672       0.05017380       0.22160339
H       13.81633685       5.20613108       8.88433258       0.56586462      -0.46012390      -0.86745429
H        3.03599667       4.89124006       8.28652453      -0.58356589       0.46446365       0.88297576
H        5.49196983       8.29773393      43.50514189      -0.24484977      -0.22779101      -0.31475961
H        5.08382332       7.92072489      42.98558012       0.24627957       0.22701660       0.31104925
H        9.41419893       3.23317405      10.01276685       0.67649353       0.47346842       1.56203711
H        9.72289759       3.44927886      10.72410133      -0.68291414      -0.47435367      -1.56703508
H        7.49015600       8.06610035      38.99530573       1.01992047      -0.49799135       0.38006744
H        8.17217670       7.75502392      39.22514155      -1.17084861       0.47664684      -0.31833267
144
Lattice="11.174675241468789 0.0 0.0 5.587337620734394 9.677552638152974 0.0 0.0 0.0 46.84306309572773" Properties=species:S:1:pos:R:3:forces:R:3 energy=40.69450530916508 pbc="T T T"
Pt       5.64636016       9.67315474      19.74523674      -0.28630933       0.11187231       0.14180946
Pt       2.78772368       0.03111167      19.78988862       0.22753133      -0.71923894       0.42024583
Pt       5.55370198       0.00147579      19.86618456       0.34481299      -0.09275512      -0.59128821
Pt      13.97956748       9.57967946      19.73034901      -0.21575646       1.02304327       1.01807928
Pt       1.47644861       2.41164389      19.87658976      -0.59326899       0.17106424      -0.15161051
Pt       4.19076499       2.36230961      19.97057965       0.61856323       0.71844393      -0.95205903
Pt       7.05610371       2.37746178      19.92739421      -0.41625059      -0.02771650       0.12156717
Pt       9.73620985       2.42020239      19.70825780       0.52760559       0.06134781       1.03608632
Pt      13.97339647       4.85358873      19.93385522       0.04842545      -0.29670456       0.39591700
Pt       5.62198557       4.82743432      19.91163329      -0.20919165       0.03350688      -0.24646597
Pt       8.36611688       4.90139791      19.81441966       0.34228405      -0.59270620       0.45877585
Pt      11.23345130       4.85084455      19.69325293      -0.35352954      -0.63389266       1.77721047
Pt      15.29424142       7.30390013      19.88946986       0.65641505      -0.61363238       0.16793856
Pt       6.92441888       7.21372978      19.78957185       0.35546377       0.45659453      -0.37639257
Pt       9.86711943       7.24632617      19.77004471      -0.68189442       0.43635559      -0.52571893
Pt      12.59418641       7.24838915      19.79067358       0.19870515       0.05513654      -0.77937931
Pt       1.34100682       0.76568936      22.14116105       0.42916599      -0.02911183       0.74626482
Pt       4.18829700       0.78017699      22.34261415      -0.51313567      -0.22366877       0.02102648
Pt       6.89400729       0.86038994      22.35852215       0.53245264      -0.24619138      -0.39514875
Pt       9.74293722       0.88212511      22.12546930      -0.14379950      -0.39330992       0.56105232
Pt       2.80509680       3.21721919      22.32785660      -0.99530137      -0.08502305      -0.13279800
Pt       5.44653636       3.29285744      22.26141916       1.11548197      -0.40085122       0.11868059
Pt       8.34153022       3.22669996      22.31277961      -0.09582194      -0.08191330      -0.63986897
Pt      11.17484455       3.18888362      22.06789184       0.00871733       0.26608297       0.87253481
Pt       4.06743546       5.67791788      22.31885191       0.52836895       0.17577913      -0.11393768
Pt       6.95979478       5.66375327      22.26332065      -0.19174260       0.08129289      -0.07516003
Pt       9.73668580       5.55216025      22.14180819       0.18539017       0.51655573       0.40212494
Pt      12.49906534       5.65932800      22.31682230       0.13817032      -0.42593154      -0.32793087
Pt       5.47418903       8.04848450      22.21345908       0.75132346       0.20429397       0.20866098
Pt       8.37138629       8.03653774      22.13739795      -0.31993216       0.07359964       0.56262583
Pt      11.12516163       7.96433791      22.30710045       0.15486090       0.82953799      -0.64967000
Pt      13.96906084       8.17399347      22.21909855      -0.85389221      -0.23037086       0.54196882
Pt      11.33375922       1.64023425      24.59103703      -1.38576663       0.07950032      -0.40684804
Pt       2.74762269       1.69357286      24.70877361       1.22446227      -1.01988935      -0.58931541
Pt       5.59295471       1.58964132      24.70511214      -0.28934658       0.43674612      -0.18001555
Pt       8.52140374       1.66206040      24.67552354      -0.88099086      -0.47055793      -0.51704836
Pt      12.65221861       4.06095000      24.68909638      -0.46364167       0.51223117      -0.67453104
Pt       4.25251137       4.01970045      24.63271429      -0.55464971      -0.05147992       0.28611597
Pt       6.91590956       4.02819617      24.54617702       0.65278643      -0.33784530       0.42153445
Pt       9.82342770       3.99725979      24.51574981       0.26010412       0.00072916      -0.14684111
Pt      13.85386490       6.54725793      24.59856254       0.26870269      -0.02585656      -0.02707192
Pt       5.52771842       6.37596507      24.66562966      -0.04516735       0.73104233      -0.85414910
Pt       8.35776573       6.39803348      24.60967978      -0.29715502       0.30001485      -1.01373649
Pt      11.04714716       6.43323165      24.57203817       0.70991868      -0.14395788       0.49473506
Pt      15.32629123       8.91618283      24.61285262      -0.35706842      -0.22529139      -0.70141500
Pt       6.86490820       8.86081399      24.53181066       1.09303772      -0.18917793      -0.35530284
Pt       9.70218967       8.77129521      24.64667359      -0.56406742       0.92976320      -0.04572836
Pt      12.38887893       8.96418893      24.65800457       1.34715402      -0.82710415       0.00973805
Pt       5.58848147       9.61511117      26.89669344       0.54036337       0.90972221       0.75601780
Pt       2.82881032       0.03931338      27.06800787       0.08084834      -0.04517634       0.66998327
Pt       5.64793321       0.03423385      27.13035478      -0.02207884      -0.38902798       0.05823446
Pt      13.99656221       9.56632927      27.02490478      -0.44150960       0.76716328      -0.18916713
Pt       1.48207618       2.52959336      27.03351618      -0.14795877      -0.58047670      -0.65864313
Pt       4.32084976       2.37937726      27.04875161      -0.42404667       0.64623809       0.30662826
Pt       7.12027007       2.51217585      27.09636311      -0.69849861      -0.69066292      -0.30514163
Pt       9.82493592       2.33815261      26.99001264       0.54580128       0.20579626       0.37093797
Pt       2.93241639       4.85426238      27.00499076      -0.08520868      -0.00744874      -0.63231015
Pt       5.72685091       4.90934020      27.08987780      -0.47702709      -0.58656353      -0.66639245
Pt       8.48816963       4.82208697      26.84130125      -0.77175629      -0.09549669       0.01673583
Pt      11.09349904       4.82377619      26.91341310       1.18983877       0.10344706       0.77705532
Pt       4.23947922       7.30195895      26.93994205      -0.26750427      -0.86624151       1.65913868
Pt       6.99424850       7.24882554      26.85343311       0.36528924       0.54083443       1.06396031
Pt       9.70400493       7.30713466      27.07880000       0.71441603      -0.30955726       0.66281039
Pt      12.61966155       7.14930422      27.01198677      -0.80758333       0.51207691      -0.17982502
H        0.15435660       0.04795858      28.46168799      -0.09244788      -0.08882596      -0.27643424
H        8.53750162       9.60102611      28.67188030      -0.18246967       0.13422574      -0.92162669
H       11.22624529       9.65701211      28.68793680       0.02711306       0.03215370      -0.11211425
H       14.06426505       9.65449188      28.56191499      -0.04653414      -0.04732167       0.24455127
H        1.65073085       2.50935647      28.52934314      -0.03124816      -0.01025433       1.04879546
H        4.24688742       2.54423538      28.60315556       0.08404525      -0.15874790      -0.12195463
H        6.88083394       2.76084001      28.60265024       0.15868387      -0.13547632       0.13415812
H        9.89489922       2.36315872      28.55613401      -0.03860614      -0.04973954      -0.18453117
H        3.26454465       4.74416765      28.47906688      -0.06976946       0.06587552       0.78412634
H        5.63174777       4.95092483      28.60514444       0.11244412       0.01778021       0.62557697
H        8.63414032       4.65525444      28.34676673      -0.06888654       0.04589265       0.73723072
H       11.12580540       4.66854604      28.49860234      -0.00539777       0.17029935      -0.52808535
H        4.25905028       7.28263391      28.58884000      -0.02946125       0.02994281      -1.28350687
H        7.15161870       7.28931011      28.43096225      -0.18150498      -0.00529802      -0.41363114
H        9.59408248       7.09900171      28.66659113       0.16591252       0.19678274      -0.79630828
H       12.55218068       7.11280676      28.55139849       0.05514940      -0.01853457       0.25843599
H        0.18098839       0.10206039      18.21032265      -0.05439478      -0.09908467      -0.18269771
H        8.58797715       9.67190121      18.27289068      -0.10214197       0.06517927      -0.40398821
H        5.52424027       0.06700875      18.26612259       0.08464278      -0.05354117       0.82793742
H       14.14103596       9.53412927      18.23493263      -0.05305240      -0.01265009      -0.92762917
H        1.52655663       2.42078548      18.33552977       0.01564208       0.04994651      -0.32896855
H        4.45714139       2.61265086      18.40827710      -0.23983791      -0.20515476       0.67285877
H        7.25737743       2.25760208      18.39468708      -0.13198091       0.06402870      -0.12002759
H        9.84944576       2.24287069      18.21547317      -0.02792758       0.04958553      -0.89083898
H       13.92757563       4.92885843      18.40949126       0.07693975      -0.09185858      -0.53413415
H        5.81064319       4.96324556      18.36450113      -0.14157164      -0.13600622       0.12448049
H        8.66781207       4.79516394      18.32096160      -0.13459650       0.02206984      -0.55348939
H       11.06815680       5.37353420      18.32176494      -0.02102314       0.27541301      -1.65306163
H        4.41289680       7.07508203      18.40334212      -0.08133197       0.06137173      -0.50033981
H        7.00137940       7.19008893      18.20396471      -0.06479669       0.02382847       0.56277341
H        9.78914110       7.54725461      18.20144861       0.09860953      -0.30028379       0.69246703
H       12.90643479       7.14044335      18.20541941      -0.38708448       0.17349677       0.99145603
H        4.05422462       2.14928159      11.23350354      -0.21177098      -0.10081451      -0.05641309
H        3.38877546       1.83244651      11.06928880       0.21507640       0.10437085       0.04884274
H       11.12294887       0.84534608      37.96825322       0.16900891      -0.39471090       1.26249063
H       11.03483208       1.05610726      37.28886320      -0.16012163       0.38641730      -1.25878441
H        6.04389848       6.13659406      12.64580483       0.01839033      -0.00303956       0.00921226
H        5.46654995       6.22314393      12.17837246      -0.02100797       0.00420015      -0.02169626
H        3.74313823       1.92987205      37.19676153       0.12037032       0.59415472       0.43367752
H        3.94667626       2.51736773      37.64864053      -0.30835396      -0.56900191      -0.46775365
H        8.25699463       6.44535915       9.28052265       0.20411630       0.89268017       0.42004091
H        8.41596494       7.13746229       9.59951213      -0.21797532      -0.90115476      -0.41858667
H        6.14886416       2.07995073      38.05776853       0.16668335      -0.14759830      -0.00775908
H        6.46900723       1.41472402      37.91980121       0.01723565       0.10717927       0.04922429
H       13.03130739       8.72421987       6.17446367       1.02753603      -0.50758803      -0.40079156
H       13.69483580       8.39748822       5.91306286      -1.02472734       0.50364292       0.41006270
H       11.52441423       5.63313863      39.11596729      -0.53017539      -0.06518801       0.71726328
H       11.96461834       5.67529864      38.54002954       0.55196857       0.04926568      -0.70768642
H        5.39418519       4.61613419       7.12307796      -0.21674581      -0.22915371      -0.04623744
H        5.91218605       5.13600793       7.21677468       0.24019350       0.23679759       0.04555147
H        6.35653604       5.44218662      36.71949174       0.60303587      -0.12361351       0.17574906
H        7.08191950       5.29608459      36.92025711      -0.60590285       0.12325870      -0.15871164
H       13.01797876       6.66411727      11.17017190       0.33529270      -0.58466530      -0.43399686
H       12.71383042       7.19370317      11.56759367      -0.32947120       0.56137240       0.43263212
H       10.66841339       9.66996492      42.28887031      -0.96244830       0.12577195      -1.13952100
H        4.65476880       0.04010450      41.56168475       2.04956532      -0.39234832       4.67515659
H        7.74872288       0.47784112      10.32530907      -0.26478714      -0.30206659       0.42520240
H        7.40101239       0.07309944      10.87362563       0.27306917       0.32659569      -0.43513611
H        4.27399800       4.69168057      39.13499466       0.07611854       0.06548986       0.11399192
H        4.67966552       4.97957026      39.70001050      -0.07817363      -0.05946448      -0.12315405
H        8.69913033       7.12690047       3.84913057       0.14464359       0.11647999      -0.24684906
H        8.35408551       6.84999801       4.44237826      -0.14631121      -0.11742358       0.25102326
H        4.37663754       0.13852380      40.66311122      -0.76794177       0.25099188      -2.51170897
H        4.36280558       0.00649528      39.92191207      -0.30101064       0.04100267      -1.02757978
H        4.26074637       2.69037162       5.53905733       0.12397526      -0.00805655       0.09881470
H        3.68243033       2.71934140       5.07177174      -0.12356748       0.00937836      -0.09308654
H       13.62940752       7.58058557      37.03519839       0.35219127      -0.68383098       0.37447119
H       13.32934669       8.16458074      36.72191528      -0.35818169       0.68836975      -0.36332572
H        6.00072366       9.14844441       8.53420016      -0.12246782       0.09973902       0.26574615
H        5.69458414       9.40556210       9.17708805       0.12035567      -0.10577519      -0.25832620
H       10.09765051       7.74656798      37.22918926       0.24046990      -0.13290419      -1.54249668
H       10.00093366       7.81141733      37.93107055      -0.15069751       0.15195504       1.45415056
H       13.84171884       5.23266696       8.83783319       0.02193948      -0.02443602      -0.04400418
H        3.02931880       4.93157026       8.25405677      -0.03790115       0.02937666       0.05799818