144
Lattice="11.174675241468789 0.0 0.0 5.587337620734394 9.677552638152974 0.0 0.0 0.0 46.84306309572773" Properties=species:S:1:pos:R:3:forces:R:3 energy=40.983626424075894 pbc="T T T"
Pt      11.15387758       0.07549660      19.77517262       0.22941621      -0.92198098       0.50320220
Pt       8.39272162       9.61365774      19.73771168      -0.57788223       0.18800114      -0.60974616
Pt       5.46890949       0.00874916      19.98271279       0.87825418      -0.13675904      -0.35986319
Pt       8.31891076       0.02372078      19.80185899      -0.06596166      -0.41292924       0.52589452
Pt      12.56368228       2.45412042      19.72317155       0.22835615      -0.24486855       0.35785878
Pt       4.18357689       2.39781247      19.82970390      -0.39024901      -0.39690945      -0.16602823
Pt       6.89064942       2.41822177      19.93124968       0.71300864      -0.49994591      -1.54043233
Pt       9.79615981       2.36773220      19.66092097      -0.08025313       0.79647744       1.47375953
Pt       2.92400683       4.74357071      19.88935338      -0.66312355       0.61239904       0.04673520
Pt       5.64768240       4.76325717      19.75346588      -0.50463820       0.78381014      -0.12229582
Pt       8.36354050       4.75631648      19.70383749       0.29328963       0.17315148       0.12225673
Pt      11.23014365       4.85472447      19.74816508      -0.36417982      -0.68671083       0.27754959
Pt      15.32849732       7.21944412      19.81414859      -0.10485731       0.12758535      -0.52732921
Pt       7.00716430       7.23155343      19.72411160      -0.23634508       0.04896023      -0.28477746
Pt       9.85282315       7.19214310      19.83148810      -0.46578443       0.05198951      -0.92868203
Pt      12.59563588       7.19375263      19.73657042      -0.51813310       0.11795965      -0.69294220
Pt       1.37720410       0.89145781      22.15551048      -0.21683066      -0.59990293       0.16150360
Pt       4.11057727       0.78891643      22.32261764      -0.05827046       0.74594957      -0.01918557
Pt       6.92471530       0.91158989      22.30272940       0.05068288      -0.82250369       0.37794808
Pt       9.68729397       0.85889974      22.05118366       0.30727538      -0.50404525       1.34425998
Pt       2.74948713       3.27341837      22.27937464       0.15989357       0.04320714       0.20532395
Pt       5.49706483       3.26419262      22.29187044      -0.06284368       0.21728112       0.14881828
Pt       8.30255565       3.22199673      22.20161959       0.49836957       0.57372785       0.33873594
Pt      11.20372867       3.16269983      22.26586231      -0.56686014       1.03588390      -0.58977461
Pt       4.14402924       5.72774516      22.32510387      -0.33550584      -0.70957828      -0.19813900
Pt       6.89792508       5.67946200      22.11705445       0.46745589      -0.42416546       0.44260645
Pt       9.66811093       5.68665495      22.22426893       0.36514992      -0.31530803      -0.21397005
Pt      12.44898752       5.70812562      22.23326201      -0.07834383      -0.28989989       0.12865493
Pt       5.57181331       8.01553124      22.13425359      -0.86574733       0.96055216       0.31102073
Pt       8.22568798       8.15030619      22.12336022       0.98167759      -0.46373937       0.37629950
Pt      11.08210213       8.18154520      22.29891182       0.08921189      -0.90683204       0.27848855
Pt      13.81766946       8.03571314      22.15018811       0.59564596       0.78454697       0.39720565
Pt      11.17430407       1.62187877      24.54748447       0.11067623      -0.16297890      -0.04236330
Pt       2.80699162       1.58819749      24.70547668      -0.23260181       0.38271156      -0.39646980
Pt       5.58959922       1.67106272      24.72067045       0.21614134      -0.42525074      -0.31472799
Pt       8.34269348       1.66372705      24.70749600       0.35466084      -0.53261155      -0.69428968
Pt      12.66202331       4.16986694      24.65026577      -0.97868872      -0.85666257      -0.30139631
Pt       4.10918389       3.97026685      24.77234291       1.05403876       0.20341644      -1.13737106
Pt       7.02797179       4.02610328      24.61784016      -0.43526697       0.15814446      -0.16462594
Pt       9.85503767       4.04971189      24.52088479      -0.30384040       0.21843632       0.19524778
Pt      13.84715929       6.56673895      24.61265564       1.11844921      -0.31238237       0.04890881
Pt       5.48685756       6.33328059      24.60101806       0.25882784       0.68470258       0.35782406
Pt       8.27690218       6.46143930      24.46957711       0.39617515       0.09596566       0.25410396
Pt      11.12434541       6.56650313      24.70991540      -0.21643394      -0.65803921      -1.08884764
Pt      15.34914870       8.87431943      24.53636678       0.04377843       0.06254157      -0.12422954
Pt       6.98950130       8.92078932      24.50388041      -0.46404842      -0.20672931       0.22065544
Pt       9.72822432       8.92666547      24.69390650       0.07411437      -0.11475554      -0.36356249
Pt      12.56185575       8.89044929      24.75679566       0.17370966       0.61045527      -1.37953115
Pt       0.04436225       0.02220456      26.97118442      -0.48856285      -0.97723424       0.74328977
Pt       2.80880919       0.05515632      27.16683265       0.48208266      -0.60040253      -0.45251986
Pt      11.37652822       9.58934165      27.05840489      -1.46306193       0.85482270       0.86794204
Pt      13.98449391       9.60356314      27.15482058       1.13937569       0.00746623      -0.05724125
Pt       1.51579955       2.34510387      27.10948737      -0.30179149       0.79353148      -1.43443525
Pt       4.33677609       2.30494044      27.11915239      -0.30357018       0.56523418       0.60493922
Pt       7.09690922       2.33468312      27.18986731       0.19836962       0.37604803       0.42421561
Pt       9.88273944       2.36739380      26.92442311      -0.20908701       0.35260677      -0.27580586
Pt       2.94372628       4.76772230      27.03265896      -0.59327745       0.57542068       0.03218199
Pt       5.72605420       4.76426360      27.12639838      -0.25885817       0.11291695      -0.23852280
Pt       8.47483035       4.82192906      26.91808363       0.02332479       0.06626891      -0.34646028
Pt      11.25977617       4.75365459      26.98446859       0.10523038       0.32224151       0.82441169
Pt       4.24551347       7.23965087      27.15634172       0.47882351      -0.30772072      -0.29416636
Pt       7.10009390       7.31434832      26.91657626      -0.68228930      -0.28321525      -1.26764035
Pt       9.82142434       7.36193214      26.95871199      -0.43158284      -0.91877502       0.60747612
Pt      12.55158823       7.17008479      27.04358385       0.75165075      -0.15940121      -0.09366067
H       16.60134111       9.43034879      28.55435147       0.25211313       0.30294847      -0.91135871
H        2.79036561       0.03473589      28.70276919      -0.01206053      -0.07465482       0.25227717
H        5.58813458       0.13483447      28.59943565       0.10957862      -0.22093208      -0.09443405
H       14.13525376       9.56133647      28.70630589      -0.08060101       0.02928744      -0.15841134
H        1.55662585       2.07985855      28.57219834      -0.01809825      -0.01430742       1.34102345
H        4.33458172       2.56474307      28.67669638      -0.02201379      -0.28238350      -0.35931993
H        7.22064583       2.27006043      28.77354533      -0.09590010       0.10904203      -0.66951478
H       10.14113771       2.41873894      28.42960058      -0.07446738       0.00663627       0.60675496
H       13.89712855       4.85306202      28.54543823       0.08676111      -0.00913359       0.56442171
H        5.59252433       4.49869324      28.65680800       0.17457561       0.24943225      -0.09927159
H        8.60168615       4.83054956      28.44587825      -0.04711264      -0.01784191       0.41387746
H       11.41707358       4.83229602      28.58135598      -0.19012615      -0.14353724      -0.77788270
H        4.58425251       7.08137145      28.67873037      -0.25124770       0.09534577      -0.35170406
H        7.21878763       7.21171944      28.40193028       0.04051699      -0.06262899       1.24976933
H        9.80543170       6.98997558      28.48680477      -0.00449352       0.28978598      -0.11871273
H       12.71254716       7.24057716      28.55822003      -0.01953859      -0.04946469       0.63827229
H       16.68712532       9.56859405      18.26412428       0.03137183       0.01262926      -0.63182473
H        8.45229638       9.50784928      18.14990661      -0.03312944       0.08263989       0.65821683
H        5.50126730       0.00775993      18.42783508       0.02642374      -0.01937172      -0.05523784
H        8.27753915       0.20042953      18.28558539      -0.06175636      -0.13456358      -0.56547534
H        1.52993281       2.21953704      18.20558280      -0.07975511       0.15514989      -0.19118236
H        4.13613381       2.22628052      18.27553690       0.05143415       0.14261602       0.23096325
H        6.99757990       2.31130348      18.30009866      -0.19542339       0.12440618       1.16354251
H        9.57065662       2.32666253      18.19147275       0.00633931       0.04195784      -1.30183804
H        2.99968618       4.84095617      18.34843860      -0.05103974      -0.10793723      -0.14664699
H        5.47946228       4.92481465      18.20681017       0.14367995      -0.12236575       0.20359179
H        8.19037460       4.58215264      18.16570710       0.15695943       0.13896789       0.13568355
H       11.26106033       4.70788315      18.20376692      -0.06147945       0.04087155       0.01886110
H       14.87668606       7.03707462      18.29195623       0.39969936       0.22392537       0.54132450
H        6.89685256       7.26068970      18.15771370       0.05951307      -0.02058091       0.28447846
H        9.86912486       7.12359027      18.21429321      -0.05426288       0.05880422       0.98227078
H       12.17371028       6.92993139      18.19174205       0.49522072       0.32281411       0.86975592
H        5.59170778       2.49731629      10.36147466      -0.51475060      -0.34117463      -0.31056538
H        5.01591323       2.12042847      10.01982221       0.52167147       0.34104040       0.29916665
H        0.68895955       0.69584058      40.37326290       1.00043249       0.94143289      -0.02948567
H        0.16810583       0.20472132      40.38319113      -0.99613440      -0.94187438       0.01252127
H        5.47194109       5.65248661       9.97287988      -0.84272259       0.23511583       0.74733800
H        4.72537406       5.69045952      10.12094361       0.32668388       0.11348439       0.25721088
H        4.09046865       3.00358772      36.33135813       0.30515191       0.06874771       0.23127513
H        3.52383915       2.91947475      35.86549707      -0.28552875      -0.02098766      -0.25001100
H        9.17739638       8.04039756       8.38982141       0.08875680       0.07625687      -0.00170438
H        9.75773216       8.51823912       8.41592126      -0.07578070      -0.06811342      -0.00905903
H        7.84277619       1.25457696      38.27851984      -0.17459232       0.84787095       0.08642841
H        7.68617634       2.00836109      38.35690612       0.17336307      -0.83357358      -0.08752653
H        6.20456782       0.92685300       6.74734161       1.50614107      -1.80129862      -0.28418559
H        6.65706809       0.31428724       6.65070612       0.07028343      -0.20504266      -0.00336995
H       11.05257383       4.22971275      38.35854273      -0.10294158      -0.13293658       0.09261037
H       10.64995917       3.69875490      38.71148437       0.09959452       0.12962373      -0.09110396
H        6.27208975       4.86362815       8.14663892      -0.43616351       0.53790361       0.50546145
H        5.85879619       5.27222998       8.67311899       0.95659930      -0.89214307      -1.51129019
H        6.86710661       4.77012559      35.51252529       0.29010376      -0.71676862       0.73461848
H        7.08133199       4.24131679      36.04452702      -0.28907043       0.71683109      -0.71490252
H       12.95578522       7.07232079       8.62044391       0.51451302       0.21022910       0.81936437
H       13.37270220       7.21448682       9.25662876      -0.47605059      -0.14053960      -0.69888526
H       10.85622202       9.09180703       0.13708054      -3.17291641       0.74307305       0.20444436
H       10.00296488       9.29166098       0.19166136       3.17198277      -0.74369806      -0.20009972
H        8.23059164       1.26424480       9.20362313      -0.06627867       0.12959544      -0.08528350
H        8.51069807       0.68282784       9.57456570       0.06142366      -0.13435480       0.07636974
H        5.53557429       4.49254253      39.52513741      -0.40729210      -0.10881527       0.04856557
H        4.80972529       4.29038337      39.63048854       0.41235819       0.11332292      -0.07110952
H        9.76067954       8.67230293       4.52517535       0.39088485       0.24308780       0.03448389
H        9.13758385       8.28109124       4.48314655      -0.37961492      -0.23780058      -0.01936272
H        3.35650452       0.58447829      37.29264258      -0.17306250      -0.01780592       0.61725044
H        3.14927891       0.58045807      38.02965558       0.15838331      -0.02812479      -0.58454418
H        5.34255727       2.47432418       6.92985714      -0.22171652      -0.55689299       0.01164890
H        5.48314910       1.70120589       6.87517897      -1.36886084       2.54119897       0.29331687
H       13.08691097       7.08936190      39.20468521      -0.46232963       0.06691502       0.50384372
H       13.57737701       7.01613928      38.66720042       0.46398336      -0.07370453      -0.50519121
H        1.09544768       0.78400775       8.59046143       0.09583942       0.01266988       0.17198573
H        0.74622248       0.71925142       7.93740911      -0.09388975      -0.01820264      -0.16846281
H        9.06168067       7.85925268      35.82058170      -0.00010670       0.03347371       0.03087047
H        8.96866285       7.23044025      35.42741960      -0.00799793      -0.04218461      -0.01941774
H       12.38418807       6.14750319       6.80417769       0.08208479      -0.12402900      -0.26315424
H       12.75911731       5.86533628       6.21430945      -0.12327618       0.07445067       0.14679587
H        4.90475567       8.03309727      44.94816198       0.40027452       0.83202964       0.43512249
H        5.20939801       8.66722313      45.27978609      -0.40023595      -0.83179539      -0.43587297
H        9.52090451       4.18713408      10.05239543      -0.91284120      -0.01950953      -0.54799753
H        8.85213157       4.17268372       9.65162314       0.89755648       0.02462320       0.53782237
H        7.76527018       6.87689390      38.46725081      -0.32140902       0.20895022       0.21185763
H        7.21495604       7.23960904      38.84802993       0.31747058      -0.21028875      -0.21834169
144
Lattice="11.174675241468789 0.0 0.0 5.587337620734394 9.677552638152974 0.0 0.0 0.0 46.84306309572773" Properties=species:S:1:pos:R:3:forces:R:3 energy=40.127575873021826 pbc="T T T"
Pt       5.64474982       9.67220435      19.74558287      -0.26007688       0.11669596       0.09981486
Pt       2.78851554       0.03046995      19.79252486       0.24722315      -0.69617534       0.20152669
Pt       5.55273909       0.00208735      19.86612570       0.34497264      -0.02245987      -0.61255687
Pt      13.98093726       9.57924645      19.72975015      -0.20667121       1.03226507       0.64841068
Pt       1.47680520       2.41235404      19.88029048      -0.60440522       0.17390275      -0.14070003
Pt       4.19032254       2.36400868      19.96950002       0.61457622       0.68312699      -0.75106841
Pt       7.05803774       2.37972836      19.92947315      -0.31181315      -0.18273552      -0.97371644
Pt       9.73608704       2.42090584      19.71084013       0.57188821      -0.02200325       0.36644599
Pt      13.97343065       4.85458006      19.93520398       0.07816180      -0.31613567       0.82061672
Pt       5.62143942       4.82605425      19.91262760      -0.25058410       0.02185772       0.01865078
Pt       8.36624601       4.90153585      19.82083149       0.40440989      -0.65030789      -0.02205030
Pt      11.23143414       4.85202693      19.69408739      -0.36766985      -0.54243904       1.42401564
Pt      15.29574455       7.30837700      19.89087494       0.72162002      -0.72826940      -0.28167775
Pt       6.92455190       7.21265240      19.79221514       0.28833279       0.45648861       0.02599668
Pt       9.86746001       7.24465777      19.77263894      -0.70284528       0.43127149      -0.34170684
Pt      12.59352410       7.24918869      19.79391092       0.19520922       0.04025885      -0.64136791
Pt       1.33696713       0.76480083      22.14196110       0.47245130      -0.02680170       0.71752089
Pt       4.18850054       0.77974176      22.34018106      -0.52898139      -0.24225733       0.05458684
Pt       6.89259459       0.86093279      22.35766760       0.56130505      -0.25629607      -0.41803595
Pt       9.74569185       0.87809774      22.12903737      -0.17818415      -0.31966144       0.47880733
Pt       2.80637377       3.21470917      22.33045452      -1.01111937      -0.08697709      -0.14043753
Pt       5.44543322       3.29288297      22.26098980       1.14147806      -0.40693471       0.12215595
Pt       8.33884798       3.22757606      22.31429438      -0.07673741      -0.09900985      -0.68542659
Pt      11.17545251       3.19142676      22.06608391      -0.01335303       0.23939903       0.87336165
Pt       4.06697376       5.67803392      22.31964534       0.53681499       0.18493123      -0.12918226
Pt       6.95781314       5.66583487      22.26391340      -0.17100228       0.07265887      -0.07820551
Pt       9.74085805       5.55412895      22.14121082       0.14404427       0.46626240       0.40039253
Pt      12.50188366       5.65786098      22.31664577       0.14841437      -0.42496842      -0.32386339
Pt       5.47388432       8.04920351      22.21777878       0.76132274       0.18811581       0.17850579
Pt       8.37427569       8.03386706      22.13823348      -0.34126410       0.09760448       0.56272173
Pt      11.12488712       7.95885138      22.30778614       0.18476284       0.90708011      -0.67282945
Pt      13.97064839       8.17416911      22.22121457      -0.87936413      -0.23887479       0.54502171
Pt      11.33557020       1.63964759      24.59128129      -1.38863361       0.08357038      -0.39074111
Pt       2.74978863       1.69546310      24.70954030       1.22792506      -1.05028677      -0.63517129
Pt       5.59657199       1.58717429      24.70282167      -0.34004283       0.46581477      -0.14297520
Pt       8.52282961       1.65990242      24.67180331      -0.87474000      -0.41888621      -0.45368508
Pt      12.65088920       4.05815536      24.68604728      -0.45547149       0.54868346      -0.65574884
Pt       4.25137540       4.02066367      24.62782826      -0.53771514      -0.03737433       0.33398941
Pt       6.91227257       4.02754292      24.54400942       0.68990982      -0.32600638       0.44725320
Pt       9.82437181       3.99843253      24.51262784       0.24226838      -0.03085375      -0.13826931
Pt      13.85344709       6.54569103      24.60353949       0.28044617      -0.02221896      -0.11281411
Pt       5.52975336       6.38062878      24.66305776      -0.05771201       0.67171335      -0.88440275
Pt       8.36120587       6.39693548      24.60839489      -0.32686052       0.27797124      -0.99151850
Pt      11.04919786       6.43087365      24.56785350       0.69490188      -0.12222382       0.53840089
Pt      15.32765506       8.91906957      24.60908523      -0.38415214      -0.25108728      -0.64444190
Pt       6.86024942       8.85771343      24.53241680       1.15859115      -0.16485144      -0.34318161
Pt       9.69934034       8.76866853      24.64472380      -0.54507470       0.94998926      -0.03953354
Pt      12.38715412       8.96372701      24.65842911       1.36397827      -0.84811187      -0.01957972
Pt       5.58917718       9.61586116      26.89774950       0.46748546       0.90770745       0.82215065
Pt       2.82646953       0.04001706      27.06609629       0.05581145      -0.00356072       0.18823305
Pt       5.64412313       0.03203726      27.13080651       0.02859067      -0.39981094       0.09406587
Pt      13.99840820       9.57195490      27.02010441      -0.46529952       0.76706815       0.41911119
Pt       1.48252970       2.52993301      27.03063578      -0.19034624      -0.58793396      -0.84892535
Pt       4.31891612       2.38037907      27.04742572      -0.40238154       0.63784707       0.08448363
Pt       7.11978051       2.51257911      27.09530966      -0.71223754      -0.67122459      -0.17831604
Pt       9.82918774       2.33843326      26.98976687       0.51732063       0.26149663       0.89735210
Pt       2.93013674       4.85371099      27.00366377       0.03758362      -0.02763808      -0.19989891
Pt       5.72732977       4.91129129      27.08768638      -0.44645154      -0.62312979      -0.96740103
Pt       8.48779679       4.82075598      26.84151959      -0.75672537      -0.11088526       0.30720159
Pt      11.08948727       4.82798446      26.91400084       1.22849894       0.12215621       0.04896949
Pt       4.23808618       7.29977915      26.93700890      -0.27551714      -0.83035815       1.02784157
Pt       6.99414617       7.25181879      26.85506061       0.30480146       0.52121508       0.31899911
Pt       9.70436319       7.30637512      27.08034917       0.67062140      -0.27105394       0.63605136
Pt      12.62162088       7.14868309      27.01033961      -0.81462121       0.54393160      -0.78249550
H        0.08342375       0.05700324      28.47109556      -0.03490042      -0.10285442      -0.33821398
H        8.53968625       9.63989129      28.63536951      -0.15604386       0.06821574      -0.40149760
H       11.26286987       9.62399448      28.68995304      -0.01389141       0.06020727      -0.16872634
H       14.01669650       9.66760117      28.59541072      -0.02347520      -0.08874960      -0.39776024
H        1.65829237       2.54323231      28.51634100      -0.00535895      -0.00936550       1.26596296
H        4.22552060       2.57284306      28.58470441       0.09652437      -0.15744512       0.10825013
H        6.88777283       2.75711348      28.61115366       0.16847798      -0.15220572      -0.00608272
H        9.89775083       2.40272908      28.59352324      -0.05693348      -0.10562607      -0.76474768
H        3.29356400       4.76747443      28.49665102      -0.18064469       0.08858094       0.31961128
H        5.66769645       4.97934207      28.59012190       0.09329223       0.01886367       0.92418283
H        8.65059667       4.66566756      28.36281515      -0.10960048       0.07378270       0.41307887
H       11.15330279       4.64173002      28.44838288      -0.00996405       0.12921980       0.23331451
H        4.26192111       7.25288062      28.53167532      -0.02893057       0.06017230      -0.60865527
H        7.12763751       7.30180035      28.38861941      -0.09779320       0.01305118       0.36712888
H        9.56818811       7.11751507      28.66688959       0.19414093       0.17345126      -0.77344882
H       12.54034582       7.10743648      28.51747487       0.03302839      -0.03679146       0.91295302
H        0.17857030       0.05143477      18.20601783      -0.05602049      -0.05685764      -0.14381030
H        3.02374880       0.01303606      18.26603637      -0.15475830       0.06316198      -0.18030068
H        5.51398534       0.12167983      18.26723055       0.09549669      -0.12812220       0.85440004
H       14.10487804       9.48449830      18.21576201      -0.07706343       0.02566141      -0.54511327
H        1.52214554       2.49706739      18.34218226       0.01345767      -0.00183731      -0.35232446
H        4.48936144       2.62122188      18.42944416      -0.24582396      -0.18422753       0.46037251
H        7.22654360       2.23212402      18.31564011      -0.21223764       0.17495124       1.04495525
H        9.84674820       2.29733286      18.17851318      -0.07348856       0.08533364      -0.19686939
H       13.94480685       4.87354713      18.42907528       0.06283648      -0.05007944      -0.96988010
H        5.80089655       4.89766085      18.37741920      -0.10297526      -0.06211760      -0.16262332
H        8.65153673       4.74800350      18.30104620      -0.21635629       0.09055426      -0.06290384
H       11.06495194       5.43274279      18.32880082       0.00637994       0.17797589      -1.29994452
H        4.38285644       7.08930364      18.37139033      -0.14598313       0.10988279      -0.02901336
H        6.95966993       7.19210774      18.23253139      -0.01403360       0.00596984       0.12718503
H        9.77133599       7.56105109      18.22341295       0.10072374      -0.26827741       0.46691802
H       12.90382289       7.12832495      18.22135964      -0.35658658       0.17449950       0.84041888
H        4.03298902       2.11321824      11.26880781      -1.53336310      -0.75499165      -0.46881011
H        3.33583637       1.77026124      11.05786408       1.53626716       0.75809395       0.46047664
H       11.12334722       0.84752355      37.93767773      -0.00564126       0.02132704      -0.08131269
H       11.02904670       1.05972821      37.22359050       0.01430742      -0.02977929       0.08538815
H        6.10965062       6.19119409      12.61518924      -0.16699882       0.01110820      -0.11890350
H        5.48568594       6.23333292      12.19401554       0.16476427      -0.00968663       0.10622462
H        3.76430657       1.92459566      37.23960210      -0.17015100      -0.51482153      -0.33188033
H        3.88495393       2.54031961      37.61618022       0.01846875       0.53103799       0.30422863
H        8.25542877       6.45920229       9.32347546       0.20943025       0.81761497       0.41479534
H        8.43000459       7.13695887       9.65941262      -0.22361426      -0.82603121      -0.41253302
H        6.18504450       2.09022099      38.06032486       0.56393582      -1.01925170      -0.19092937
H        6.51769652       1.39815666      37.91871261      -0.41716591       0.98572093       0.22333299
H       13.07843487       8.68879569       6.19285886       0.11129638      -0.06244130      -0.05772538
H       13.67104079       8.36472675       5.86233165      -0.10855275       0.05869752       0.06568732
H       11.46741438       5.66675304      39.10278435       0.43397346      -0.01612545      -0.50442660
H       11.95015911       5.67019998      38.50718412      -0.40316340      -0.01211530       0.52127397
H        5.39820827       4.56561941       7.12327854       1.11249149       1.30408752       0.33347392
H        5.90618918       5.16795691       7.28011627      -1.08812356      -1.29624236      -0.33496025
H        6.34627533       5.44775512      36.67148153       1.23272860      -0.23351018       0.50915408
H        7.06717486       5.31278470      36.96452686      -1.23572159       0.23310266      -0.49255913
H       13.01156758       6.67503128      11.18943337       0.03311658      -0.06472342      -0.04487861
H       12.72962882       7.21940080      11.61501318      -0.02814792       0.03757308       0.04581321
H        5.10267589       0.00403049      42.36983334      -0.42552763       0.09772173      -0.71175265
H        4.76456089       0.06227632      41.65877343       1.02616000      -0.18111289       2.30473685
H        7.70805553       0.51794930      10.35079652      -0.45078102      -0.71654004       0.84829855
H        7.41211332       0.04338693      10.90086944       0.45886868       0.74560070      -0.85792089
H        4.23443965       4.66629028      39.14660461       0.28976282       0.18768103       0.42663065
H        4.64414063       4.91744537      39.74053053      -0.29060540      -0.18075268      -0.43552640
H        8.68196667       7.05778540       3.84660706       0.71982849       0.38982993      -1.09625065
H        8.30587316       6.85426749       4.42029885      -0.72207743      -0.39120468       1.10092926
H        4.30293354       0.15577623      40.55865602      -0.41147578       0.09237897      -1.00011504
H        4.31340956       0.00371689      39.82847746      -0.15762869       0.03402084      -0.58741456
H        4.23849594       2.71183011       5.48099161      -0.34173563       0.01620592      -0.23777255
H        3.61361443       2.74552246       5.05030679       0.34215164      -0.01490571       0.24244347
H       13.63199334       7.58940803      37.02559476      -0.16410710       0.31640616      -0.19583735
H       13.32674653       8.17378237      36.64770568       0.15898958      -0.31105852       0.20717669
H        5.97704107       9.14155760       8.58985232       0.89817744      -0.90109819      -2.21350670
H        5.73424137       9.38469027       9.19111621      -0.89886647       0.89525920       2.22161603
H       10.11554679       7.71229582      37.22300630      -0.01415572       0.05334808       0.26930481
H        9.99450152       7.81341438      37.96183543       0.11665688      -0.02829988      -0.38374773
H       13.81044399       5.19575489       8.89774573       0.61757773      -0.49626228      -0.93242478
H        3.03574583       4.87988085       8.30023504      -0.63476843       0.50035703       0.94780022