144
Lattice="11.174675241468789 0.0 0.0 5.587337620734394 9.677552638152974 0.0 0.0 0.0 46.84306309572773" Properties=species:S:1:pos:R:3:forces:R:3 energy=40.53018241440002 pbc="T T T"
Pt       5.64587165       9.67287787      19.74525286      -0.27775809       0.11407240       0.12404571
Pt       2.78799190       0.03103692      19.79059998       0.22945349      -0.71493155       0.37768686
Pt       5.55353472       0.00158168      19.86612559       0.34266868      -0.07285247      -0.64716548
Pt      13.97991458       9.57957499      19.73021314      -0.21882404       1.03045297       0.98513007
Pt       1.47647619       2.41182247      19.87753895      -0.59595269       0.17146739      -0.10537847
Pt       4.19069122       2.36274010      19.97037481       0.62282020       0.71469575      -0.92883551
Pt       7.05657078       2.37803445      19.92796331      -0.37313086      -0.07126533      -0.23987341
Pt       9.73619277       2.42038341      19.70892627       0.53586704       0.03927540       0.89781028
Pt      13.97340049       4.85386557      19.93410501       0.05762717      -0.30681440       0.55214417
Pt       5.62177885       4.82714023      19.91195399      -0.21935600       0.02853796      -0.17776558
Pt       8.36609785       4.90144974      19.81604726       0.35438702      -0.60248768       0.36695352
Pt      11.23293992       4.85116591      19.69346594      -0.33992016      -0.66696995       1.82757628
Pt      15.29459723       7.30501236      19.88989807       0.67412686      -0.64262670       0.06091767
Pt       6.92445081       7.21344320      19.79011371       0.33971450       0.45673671      -0.30638656
Pt       9.86726056       7.24590921      19.77064068      -0.69011730       0.44300523      -0.50600958
Pt      12.59407303       7.24857717      19.79144286       0.20741270       0.04694501      -0.79750282
Pt       1.34007833       0.76547242      22.14132678       0.43810341      -0.02835130       0.73978591
Pt       4.18827592       0.78004005      22.34190853      -0.51597649      -0.22786044       0.02842123
Pt       6.89363067       0.86061925      22.35831945       0.53962213      -0.24830970      -0.40364471
Pt       9.74363411       0.88115834      22.12634098      -0.15148684      -0.37553537       0.54231256
Pt       2.80535859       3.21655270      22.32859127      -0.99878597      -0.08607823      -0.13484332
Pt       5.44626574       3.29291811      22.26128138       1.12210643      -0.40360436       0.11837283
Pt       8.34093622       3.22694913      22.31323346      -0.09126671      -0.08705396      -0.65280265
Pt      11.17492890       3.18964151      22.06741258       0.00329204       0.25606287       0.87760091
Pt       4.06728289       5.67787919      22.31913178       0.53095984       0.17891228      -0.11731662
Pt       6.95929370       5.66418374      22.26345357      -0.18654075       0.08050588      -0.07497157
Pt       9.73775975       5.55265552      22.14166427       0.17474787       0.50449908       0.40318602
Pt      12.49978999       5.65894489      22.31679220       0.14088669      -0.42438015      -0.32529959
Pt       5.47418013       8.04862206      22.21453642       0.75365752       0.20081834       0.20044784
Pt       8.37213872       8.03588562      22.13757403      -0.32636994       0.07894702       0.56272376
Pt      11.12509789       7.96297921      22.30730947       0.16294470       0.84897089      -0.65885681
Pt      13.96946376       8.17410788      22.21960387      -0.85990298      -0.23365545       0.54349577
Pt      11.33421665       1.64012306      24.59113080      -1.38644230       0.07945506      -0.40310195
Pt       2.74820444       1.69405321      24.70902476       1.22529638      -1.02849507      -0.60192591
Pt       5.59388423       1.58898749      24.70444149      -0.30292740       0.44492301      -0.16840161
Pt       8.52173578       1.66149259      24.67465446      -0.87944412      -0.45725992      -0.50039327
Pt      12.65184221       4.06027288      24.68829303      -0.46134695       0.52198774      -0.67151952
Pt       4.25223498       4.01991303      24.63144989      -0.55029297      -0.04771376       0.29706296
Pt       6.91497976       4.02801656      24.54562911       0.66174084      -0.33467537       0.42649436
Pt       9.82366385       3.99749416      24.51499289       0.25609654      -0.00640050      -0.14468704
Pt      13.85376920       6.54687843      24.59983260       0.27261436      -0.02473273      -0.04923791
Pt       5.52819884       6.37717671      24.66508772      -0.04815857       0.71672183      -0.86262935
Pt       8.35869328       6.39769684      24.60946821      -0.30585125       0.29566044      -1.01001167
Pt      11.04766458       6.43262296      24.57103557       0.70621449      -0.13912909       0.50601012
Pt      15.32661646       8.91700811      24.61199980      -0.36331645      -0.23305021      -0.68657023
Pt       6.86376505       8.86001097      24.53199449       1.10907912      -0.18307002      -0.35171896
Pt       9.70148704       8.77062482      24.64617247      -0.55942142       0.93401915      -0.04212907
Pt      12.38845566       8.96410413      24.65809493       1.35179150      -0.83256906       0.00220266
Pt       5.58863441       9.61533849      26.89687133       0.52570218       0.91013330       0.79483527
Pt       2.82825011       0.03953079      27.06753741       0.07899921      -0.03626876       0.58353245
Pt       5.64696460       0.03359397      27.13039415      -0.00994297      -0.39087945       0.07879249
Pt      13.99703198       9.56767448      27.02371292      -0.44382721       0.76866168      -0.02506312
Pt       1.48221913       2.52960471      27.03288163      -0.17056365      -0.58047080      -0.79979134
Pt       4.32035980       2.37963869      27.04847560      -0.41930866       0.64473116       0.26014346
Pt       7.12016485       2.51228420      27.09611513      -0.70461476      -0.68376309      -0.26310873
Pt       9.82602082       2.33826251      26.98993636       0.53971857       0.21649462       0.52694714
Pt       2.93188206       4.85415841      27.00467641      -0.06173914      -0.01239246      -0.55062109
Pt       5.72696187       4.90984537      27.08935656      -0.46413943      -0.59777230      -0.82008892
Pt       8.48804068       4.82182142      26.84137002      -0.77178818      -0.09697174       0.04685322
Pt      11.09257261       4.82480581      26.91364464       1.20169818       0.10146268       0.62338430
Pt       4.23918903       7.30148928      26.93914284      -0.26943928      -0.86013436       1.54996037
Pt       6.99428957       7.24949947      26.85385725       0.35106850       0.53892332       0.90202457
Pt       9.70410978       7.30688194      27.07915328       0.69998729      -0.30567026       0.69745702
Pt      12.62016389       7.14913088      27.01150099      -0.81052750       0.52111095      -0.36440992
H        0.13767663       0.04964173      28.46564772      -0.08125561      -0.09306237      -0.31496942
H        8.53884866       9.60993950      28.66467309      -0.17965919       0.11890350      -0.82736099
H       11.23483421       9.64862257      28.68920543       0.01771310       0.03952686      -0.13851768
H       14.05221393       9.65845366      28.57041296      -0.04490818      -0.05848489       0.07220661
H        1.65384433       2.51805674      28.52180010      -0.01377006      -0.01129074       1.20096290
H        4.24058612       2.55165689      28.59914945       0.08886942      -0.16067365      -0.07473554
H        6.88059647       2.76157547      28.60486393       0.16377106      -0.14222136       0.08823950
H        9.89568099       2.37262520      28.56645933      -0.04443381      -0.06144757      -0.35495958
H        3.27374792       4.74972855      28.48146423      -0.09134436       0.07130776       0.69555801
H        5.63860866       4.95869557      28.59752156       0.10309173       0.01994791       0.78190958
H        8.63784722       4.65653502      28.34836947      -0.07427609       0.04929422       0.70130008
H       11.13170909       4.66036071      28.48704971      -0.00881091       0.16722816      -0.36715561
H        4.25936333       7.27543376      28.57741312      -0.02978700       0.04002051      -1.16555035
H        7.14653928       7.29270278      28.42083251      -0.16213326      -0.00277268      -0.24348220
H        9.58674549       7.10193474      28.66976372       0.17705466       0.19730750      -0.83445132
H       12.54845168       7.11184451      28.54051077       0.04976499      -0.02385598       0.45884323
H        0.17996380       0.09003069      18.20858768      -0.05505581      -0.08954690      -0.16455653
H        8.59398199       9.67538915      18.27200900      -0.11343194       0.06610256      -0.36139712
H        5.52096641       0.08082945      18.26229373       0.08942761      -0.07467153       0.88830721
H       14.13259628       9.52116779      18.23299152      -0.05461898      -0.00782104      -0.89456683
H        1.52582526       2.44060370      18.33927849       0.01637510       0.03698095      -0.38050452
H        4.46614304       2.61556744      18.41177375      -0.24755792      -0.20473208       0.64827263
H        7.25070701       2.25125885      18.37211959      -0.16858442       0.09640069       0.26192859
H        9.84948258       2.25609969      18.20808354      -0.03749260       0.06015122      -0.74828619
H       13.93190715       4.91617341      18.41683611       0.07142191      -0.07747892      -0.69512016
H        5.80890280       4.94729425      18.36802620      -0.13198811      -0.11570891       0.04958784
H        8.66506940       4.78449719      18.31796229      -0.15113126       0.03388997      -0.46109679
H       11.06753179       5.38732225      18.32960231      -0.03061027       0.30840591      -1.71019697
H        4.40586627       7.07780414      18.39614956      -0.09829302       0.07403260      -0.38840091
H        6.99275481       7.19015144      18.20920867      -0.05355737       0.02018393       0.48693022
H        9.78355792       7.55137669      18.20497141       0.10294132      -0.29950270       0.66569775
H       12.90697758       7.13572750      18.20500875      -0.39052179       0.17961934       1.01029992
H        4.05151033       2.14293099      11.24277750      -0.81042153      -0.39125147      -0.21519287
H        3.37157499       1.81480335      11.06599429       0.81377584       0.39470166       0.20729032
H       11.12186941       0.84761883      37.95707080       0.16765857      -0.39177239       1.27033019
H       11.03485395       1.05579312      37.27688362      -0.15887798       0.38351402      -1.26630926
H        6.06110527       6.15018553      12.63885837      -0.03627364       0.00428809      -0.03374933
H        5.47108799       6.22510256      12.18239163       0.03360869      -0.00314317       0.02115632
H        3.74907214       1.93017168      37.20948528      -0.00261121       0.25592712       0.16481569
H        3.93111804       2.52309711      37.64104538      -0.17596297      -0.23326541      -0.19698638
H        8.25640560       6.44662412       9.28971481       0.24799629       1.05519450       0.50389385
H        8.42032966       7.14137977       9.61560576      -0.26191959      -1.06357884      -0.50240874
H        6.15661709       2.08471406      38.05861033       0.33455917      -0.50600469      -0.08221231
H        6.48279054       1.40955812      37.92003029      -0.16030367       0.46732992       0.12145841
H       13.04070930       8.71696914       6.18024960       0.94237107      -0.47661829      -0.40085995
H       13.69234609       8.38849357       5.90023586      -0.93959582       0.47282180       0.41002157
H       11.51092883       5.64134293      39.11217924      -0.30364782      -0.03759287       0.41752714
H       11.96031595       5.67420741      38.53150249       0.32725647       0.01916346      -0.40659377
H        5.39395394       4.60178998       7.12232641       0.30122840       0.30402604       0.05606959
H        5.91180461       5.14699338       7.23232772      -0.27703151      -0.29644746      -0.05702322
H        6.35009468       5.44384782      36.70645110       0.96070510      -0.19183053       0.30484235
H        7.08134538       5.29958294      36.93204149      -0.96348888       0.19140117      -0.28813508
H       13.01451934       6.66864750      11.17707420       0.36264718      -0.65267509      -0.48812938
H       12.71970194       7.19840014      11.57745120      -0.35709411       0.62809974       0.48720044
H       10.67703076       9.67321559      42.31535429      -0.94246364       0.13364673      -1.28047192
H        4.67999839       0.04528537      41.58522097       1.86346579      -0.32395542       4.09378862
H        7.74048792       0.49003189      10.32766867      -0.43427429      -0.54225159       0.72145623
H        7.40228742       0.06284752      10.88300052       0.44244909       0.56822205      -0.73138380
H        4.26486859       4.68525041      39.13673625       0.13581982       0.10461099       0.20026478
H        4.67012303       4.96407113      39.71063134      -0.13752832      -0.09845706      -0.20915926
H        8.69227551       7.10885176       3.85224875       0.47086519       0.34801093      -0.78623003
H        8.34496149       6.85235995       4.43349886      -0.47255698      -0.34915251       0.79052019
H        4.35669806       0.14275338      40.63182208      -0.64029163       0.22560944      -1.69596505
H        4.35034004       0.00565768      39.90021616      -0.25973621      -0.00613979      -1.11970603
H        4.25517323       2.69523613       5.52452198       0.02001758      -0.00307838       0.01399066
H        3.66516840       2.72525969       5.06642478      -0.02010346       0.00431020      -0.00856229
H       13.62841212       7.58491396      37.03108512       0.31528464      -0.61095870       0.35275203
H       13.32995624       8.16454486      36.70396931      -0.32130000       0.61563396      -0.34169090
H        5.99290555       9.14862074       8.55370618       0.30020460      -0.26517999      -0.64342195
H        5.70657986       9.39894964       9.17644916      -0.30188429       0.25923869       0.65127075
H       10.10182386       7.73880496      37.23165279       0.22799774      -0.12929718      -1.37496030
H        9.99983630       7.81080243      37.93564111      -0.13479087       0.14972049       1.28092778
H       13.83248987       5.22511732       8.85432854       0.26027691      -0.22075416      -0.41902274
H        3.03246799       4.91742462       8.26413433      -0.27715749       0.22557935       0.43374693
H        5.46070122       8.31101469      43.51826539      -0.24814233      -0.24797289      -0.34119853
H        5.07196659       7.92536743      42.98896447       0.24973564       0.24733758       0.33762676
H        9.39470710       3.25681653      10.00807983       0.73880064       0.48996875       1.56929457
H        9.72576968       3.47654034      10.70976696      -0.74529576      -0.49088970      -1.57467926
H        7.48885252       8.04929191      39.00121731       0.20639661      -0.12242797       0.10333084
H        8.14555592       7.74938361      39.22359792      -0.33950007       0.10631178      -0.04650817
144
Lattice="11.174675241468789 0.0 0.0 5.587337620734394 9.677552638152974 0.0 0.0 0.0 46.84306309572773" Properties=species:S:1:pos:R:3:forces:R:3 energy=42.9500052774121 pbc="T T T"
Pt       5.64812252       9.67487681      19.74508561      -0.30867639       0.10605776       0.06566726
Pt       2.78705819       0.03215172      19.78636404       0.22530991      -0.73874795       0.52263486
Pt       5.55459155       0.00080464      19.86629283       0.35563502      -0.17228450      -0.04201774
Pt      13.97785446       9.58065879      19.73188347      -0.08989220       0.97051412       0.38996747
Pt       1.47639430       2.41070192      19.87207714      -0.58444649       0.15346761      -0.43734261
Pt       4.19151658       2.36060043      19.97150466       0.56386995       0.68781722      -0.78608274
Pt       7.05417352       2.37470140      19.92483913      -0.71749157       0.16067159       2.05576277
Pt       9.73657541       2.41892953      19.70522266       0.54471654       0.08925868       0.99497741
Pt      13.97368030       4.85191615      19.93225179      -0.01027876      -0.21124880      -0.38179445
Pt       5.62266180       4.82903949      19.90982174      -0.16463263       0.06534614      -0.49948284
Pt       8.36680836       4.90096329      19.80666307       0.35253993      -0.56862396       0.51995140
Pt      11.23505856       4.84924172      19.69224450      -0.50208199      -0.24933301       0.75437486
Pt      15.29295117       7.29780067      19.88719269       0.62278271      -0.51365763       0.32224768
Pt       6.92423920       7.21544638      19.78693920       0.42488047       0.46753818      -0.42285267
Pt       9.86638865       7.24894440      19.76694973      -0.62809175       0.32840833      -0.32486150
Pt      12.59459892       7.24792228      19.78658289       0.07014535       0.11162908      -0.31050754
Pt       1.34527695       0.76719072      22.14036498       0.39020684      -0.04192055       0.76957393
Pt       4.18780345       0.78118066      22.34529378      -0.49697834      -0.20678098       0.00186199
Pt       6.89633265       0.85939516      22.36001192       0.49100003      -0.23690790      -0.35770091
Pt       9.73951561       0.88676093      22.12057394      -0.10661800      -0.47309098       0.63331652
Pt       2.80399010       3.22108732      22.32353648      -0.97658914      -0.08004899      -0.11662859
Pt       5.44854876       3.29261914      22.26297684       1.07679176      -0.38665923       0.12137330
Pt       8.34452799       3.22556580      22.31042654      -0.12495074      -0.05862835      -0.58742434
Pt      11.17445331       3.18523847      22.06986335       0.03297003       0.32590047       0.82165653
Pt       4.06839496       5.67792197      22.31705392       0.50991637       0.16423874      -0.10253200
Pt       6.96239700       5.66124419      22.26250963      -0.21329102       0.08475514      -0.07918715
Pt       9.73148389       5.54976425      22.14262823       0.23763320       0.57476962       0.38677752
Pt      12.49523288       5.66084770      22.31763982       0.12702717      -0.43407321      -0.36265182
Pt       5.47399194       8.04744954      22.20846178       0.73619562       0.22076060       0.24812099
Pt       8.36784586       8.03906280      22.13699543      -0.28549737       0.05378851       0.56193852
Pt      11.12577699       7.97125504      22.30581480       0.11084927       0.73454547      -0.57783514
Pt      13.96649990       8.17365531      22.21678907      -0.81639862      -0.21842834       0.51047021
Pt      11.33164725       1.64099999      24.59056375      -1.38559842       0.08267871      -0.42501882
Pt       2.74448855       1.69034946      24.70743724       1.21727300      -0.96371049      -0.52948713
Pt       5.58802128       1.59270756      24.70842816      -0.21984605       0.39576173      -0.24667346
Pt       8.51872406       1.66460623      24.68001533      -0.88352472      -0.52845198      -0.59074056
Pt      12.65439419       4.06454842      24.69343754      -0.47037616       0.45184314      -0.66282195
Pt       4.25323294       4.01848614      24.63891404      -0.57077879      -0.06617711       0.24480709
Pt       6.92040044       4.02899558      24.54980882       0.61440939      -0.35917825       0.40330020
Pt       9.82280418       3.99535920      24.51951202       0.27138948       0.03718535      -0.15939118
Pt      13.85437625       6.54914804      24.59295048       0.25387564      -0.03341380       0.06772543
Pt       5.52630865       6.36970770      24.66763335      -0.03545012       0.79485250      -0.82963204
Pt       8.35345849       6.39947819      24.61053822      -0.24515548       0.31320950      -1.02680075
Pt      11.04511778       6.43628411      24.57710929       0.72243583      -0.16054432       0.42684251
Pt      15.32455879       8.91271634      24.61616019      -0.32842708      -0.18323714      -0.76975340
Pt       6.87061391       8.86515817      24.53073458       1.01118612      -0.21861090      -0.38409713
Pt       9.70585968       8.77492620      24.64908761      -0.58458871       0.91188991      -0.08603606
Pt      12.39145547       8.96502672      24.65775897       1.32665563      -0.80242336       0.04297753
Pt       5.58810257       9.61432756      26.89566370       0.57395822       0.89529854       0.44170040
Pt       2.83173649       0.03850342      27.07033762       0.05605442      -0.08370690       0.78338253
Pt       5.65284704       0.03712182      27.13066570      -0.07191993      -0.38666156      -0.16326506
Pt      13.99426301       9.56018349      27.03100039      -0.43741128       0.77396303      -0.69835615
Pt       1.48122026       2.53024891      27.03747870      -0.01221557      -0.62362987       0.38952166
Pt       4.32333686       2.37817457      27.04950901      -0.44745451       0.63545078       0.35417798
Pt       7.12048196       2.51187012      27.09820711      -0.69578582      -0.70939928      -0.35101527
Pt       9.81883635       2.33767749      26.99130459       0.57025683       0.18351302      -0.61507195
Pt       2.93506260       4.85481980      27.00572568      -0.07729019      -0.03027783      -0.43692482
Pt       5.72631606       4.90634839      27.09286988      -0.55758333      -0.54818213       0.28449079
Pt       8.48841241       4.82305594      26.84065945      -0.73373377      -0.12772265       0.29002663
Pt      11.09780959       4.81852489      26.91231092       1.10464573       0.17462496       1.18144774
Pt       4.24098701       7.30396175      26.94457639      -0.26171905      -0.88675404       1.63203156
Pt       6.99397017       7.24587752      26.85098309       0.40020406       0.53310287       1.46326816
Pt       9.70332437       7.30833866      27.07732888       0.80630445      -0.26168433       0.02275864
Pt      12.61724328       7.14977486      27.01376611      -0.77386123       0.49089253       0.63014734
H        0.23267323       0.03693889      28.43306420      -0.11645633      -0.05922716       0.04239107
H        8.52527700       9.55224275      28.68217604      -0.16432513       0.20031184      -1.05365849
H        5.60346690       0.01327927      28.67438298       0.05784186       0.00231425       0.14229591
H       14.11701682       9.63351726      28.53917559      -0.03750905      -0.01368907       0.77177429
H        1.62591778       2.45841193      28.59204097      -0.13624200       0.03873007      -0.08468289
H        4.27431943       2.49965893      28.61005180       0.05420683      -0.11970852      -0.15564431
H        6.88513577       2.74354686      28.60448730       0.15556924      -0.12187004       0.19073987
H        9.88703965       2.31464953      28.50210686       0.00453080      -0.02315459       0.87366039
H        3.21143910       4.72618811      28.49820596      -0.08672538       0.08130446       0.59973532
H        5.61647869       4.91213646      28.66054288       0.17051584       0.02513536      -0.35249442
H        8.61156842       4.64366919      28.36024506      -0.07660217       0.07864439       0.46999872
H       11.09178330       4.72399517      28.53273572       0.03412497       0.11953137      -0.94286346
H        4.26248173       7.31199920      28.59095385      -0.02701535      -0.01926451      -1.26097941
H        7.16908041       7.27224557      28.45729088      -0.23725063      -0.00289378      -0.82985985
H        9.63653243       7.09528888      28.62145343       0.08663950       0.12177337      -0.11799642
H       12.56749993       7.13103112      28.60686657       0.06596345      -0.01310954      -0.62733275
H        0.18534807       0.14861098      18.20951079      -0.06325274      -0.15134363      -0.09883861
H        8.55696280       9.67111103      18.27076467      -0.06022630       0.05139353      -0.49874058
H       11.12571095       9.67700858      18.30268406       0.06252255       0.03681768       0.24522053
H       14.18505152       9.59945150      18.20857742      -0.15084355      -0.03726377      -0.27014533
H        1.52584926       2.32603953      18.31651191       0.01176897       0.13238432      -0.01658773
H        4.41741116       2.59189248      18.41335963      -0.16501907      -0.16059549       0.49550766
H        7.28926708       2.28997574      18.48564181       0.14336781      -0.06957406      -2.14108539
H        9.84633834       2.17930767      18.21884718      -0.03432192       0.08032075      -0.84682375
H       13.90688015       4.97801817      18.36726399       0.11512706      -0.17908995       0.27043071
H        5.82148566       5.03784873      18.35289634      -0.18158957      -0.23831429       0.40484130
H        8.66941049       4.84101436      18.31340130      -0.12697548      -0.00148867      -0.59393078
H       11.07005267       5.30130084      18.24399983       0.11209625      -0.11519931      -0.55806315
H        4.45015330       7.07624919      18.41605592      -0.06977383       0.04659816      -0.65758979
H        7.04158163       7.19959919      18.19953495      -0.10450970       0.02640163       0.61965829
H        9.82325911       7.51562808      18.20547360       0.05481489      -0.23396963       0.50390697
H       12.87666015       7.17780321      18.23164592      -0.27237678       0.10855353       0.49884367
H        4.09844285       2.19145979      11.18993511       1.66573691       0.72846609       0.27674046
H        3.45877150       1.91221833      11.08245862      -1.66239679      -0.72426462      -0.28318390
H       11.13569394       0.82448042      38.05525557      -0.18171299       0.40312535      -1.26871407
H       11.02528208       1.06314414      37.31094681       0.19109006      -0.41200802       1.27199864
H        5.95558383       6.05913230      12.67204588      -0.04160817       0.01171678      -0.04504136
H        5.43400277       6.21765499      12.15686042       0.03738127      -0.01098632       0.03391131
H        3.71752667       1.95211873      37.14882110       0.40488887       0.89803886       0.86569279
H        4.01214673       2.46705459      37.66616277      -0.63885081      -0.86095351      -0.91124994
H        8.26686191       6.45884345       9.24212571      -0.19150530      -0.94573897      -0.39706320
H        8.39835158       7.11281957       9.52203835       0.17815356       0.93750453       0.39801708
H        6.11126656       2.07126483      38.05251226      -0.02219582       0.33323711       0.09895148
H        6.40802369       1.41178302      37.91169992       0.25450042      -0.38041583      -0.04723837
H       13.01071788       8.74073412       6.14940836       0.06031089      -0.02755657      -0.01236675
H       13.68132328       8.45318173       5.97569777      -0.05803315       0.02383053       0.02167903
H       11.56422764       5.59936686      39.15884959       0.18721618       0.02074315      -0.23722748
H       12.00511228       5.68508489      38.55019842      -0.16967869      -0.03484873       0.24654490
H        5.37162318       4.65433340       7.12508034      -0.61119086      -0.49519452      -0.02676776
H        5.94120430       5.10782546       7.14663436       0.63810158       0.50452787       0.02696419
H        6.38960582       5.42743345      36.78606096      -1.47159421       0.30704167      -0.13273476
H        7.08437833       5.28146350      36.85308823       1.46913588      -0.30745590       0.14928906
H       13.04698115       6.62955352      11.11733026      -0.41717258       0.64197958       0.46659097
H       12.68626350       7.18624004      11.51708498       0.42357695      -0.66258979      -0.46866971
H       10.58481314       9.66024910      42.09627876       0.55488884      -0.04843290       2.24840736
H        4.55165002       0.00644632      41.47853511       1.36955118      -1.77793670      10.80570316
H        7.79301549       0.41847681      10.30674135       0.58117813       0.45471764      -0.77289349
H        7.40004278       0.11577898      10.83225651      -0.57284182      -0.43222922       0.76388484
H        4.31474227       4.71523356      39.12397156       0.01721868       0.02594218       0.03020995
H        4.72889855       5.05757095      39.64716614      -0.02069481      -0.02145740      -0.04232833
H        8.73512562       7.21571089       3.85446127      -0.68627685      -0.77337193       1.30584693
H        8.40516728       6.84354416       4.48138405       0.68431151       0.77244097      -1.30042195
H        4.47782959       0.11863560      40.82874199      -1.33538401       1.67598689     -11.39586163
H        4.42847871       0.00679696      40.05882861      -0.57773000       0.16335222      -1.66042399
H        4.30042430       2.66599826       5.61082104       0.08854957      -0.00683734       0.08132400
H        3.75718993       2.69291750       5.10167188      -0.08989915       0.00634317      -0.07756222
H       13.63612000       7.53277321      37.06077148      -0.24468316       0.50985903      -0.19315928
H       13.31888527       8.18175216      36.80766330       0.24215217      -0.50438184       0.20296264
H        6.03066596       9.16677712       8.46596778      -0.97090727       0.66644001       1.74043000
H        5.65171866       9.42868655       9.14257533       0.96814615      -0.67353910      -1.73295045
H       10.09232572       7.78177373      37.18069323      -0.05943234       0.04228694       0.71883190
H       10.00285744       7.82461366      37.94305277       0.14250778      -0.02177827      -0.79929870
H       13.87958605       5.28211311       8.76453669      -0.42588502       0.39973947       0.77184886
H        3.02067608       4.98168516       8.18533603       0.40810147      -0.39448336      -0.75886863