144
Lattice="11.174675241468789 0.0 0.0 5.587337620734394 9.677552638152974 0.0 0.0 0.0 46.84306309572773" Properties=species:S:1:pos:R:3:forces:R:3 energy=40.96676658932408 pbc="T T T"
Pt       5.64685525       9.67349216      19.74523127      -0.29596433       0.10744487       0.17192557
Pt       2.78747892       0.03121060      19.78914565       0.22529447      -0.72329742       0.46689051
Pt       5.55382764       0.00136305      19.86624950       0.34743628      -0.11221015      -0.51966757
Pt      13.97926171       9.57983717      19.73053561      -0.20483056       1.01208782       0.98432791
Pt       1.47647062       2.41146041      19.87570678      -0.59121954       0.16984631      -0.20552552
Pt       4.19088156       2.36189934      19.97080267       0.61107725       0.71787059      -0.95165896
Pt       7.05566418       2.37683851      19.92689756      -0.46908239       0.01726393       0.52245903
Pt       9.73626508       2.42001165      19.70764566       0.52315062       0.08033361       1.13056481
Pt      13.97340222       4.85330437      19.93353093       0.03872621      -0.28381407       0.24199405
Pt       5.62221718       4.82773850      19.91132524      -0.20138270       0.03799911      -0.29746047
Pt       8.36621434       4.90136356      19.81281181       0.33364385      -0.58527237       0.52872789
Pt      11.23389667       4.85056340      19.69305311      -0.37490183      -0.57612336       1.65465856
Pt      15.29392958       7.30274703      19.88902388       0.64008850      -0.58582717       0.25787857
Pt       6.92438767       7.21401864      19.78908050       0.37119687       0.45664880      -0.43517828
Pt       9.86695144       7.24681696      19.76943878      -0.67207175       0.42486790      -0.53240252
Pt      12.59429496       7.24826361      19.78987109       0.18447049       0.06508002      -0.73977357
Pt       1.34189169       0.76592654      22.14099174       0.42093769      -0.03064061       0.75262856
Pt       4.18830155       0.78038658      22.34329721      -0.51036584      -0.22034201       0.01489183
Pt       6.89442726       0.86017893      22.35878429       0.52465600      -0.24489836      -0.38694310
Pt       9.74224650       0.88316333      22.12456288      -0.13610907      -0.41168892       0.57811540
Pt       2.80485414       3.21792999      22.32709724      -0.99160719      -0.08368659      -0.13115686
Pt       5.44688987       3.29281147      22.26162931       1.10791385      -0.39828655       0.11936965
Pt       8.34216085       3.22635760      22.31230146      -0.10086773      -0.07560844      -0.62706411
Pt      11.17477958       3.18818785      22.06835055       0.01436013       0.27688339       0.86505622
Pt       4.06767417       5.67792809      22.31853192       0.52474242       0.17279768      -0.11104981
Pt       6.96032573       5.66330092      22.26323127      -0.19653822       0.08187267      -0.07624273
Pt       9.73559747       5.55164056      22.14199222       0.19602863       0.52867544       0.39972404
Pt      12.49831726       5.65971204      22.31693322       0.13632402      -0.42805502      -0.33303630
Pt       5.47412471       8.04826678      22.21241765       0.74976641       0.20833728       0.21683401
Pt       8.37069354       8.03708134      22.13724703      -0.31363398       0.06932338       0.56196916
Pt      11.12527009       7.96565868      22.30682998       0.14630041       0.81091291      -0.63857520
Pt      13.96865400       8.17387841      22.21865097      -0.84801495      -0.22713925       0.53843093
Pt      11.33335485       1.64032006      24.59095106      -1.38570130       0.08013050      -0.41040003
Pt       2.74706335       1.69307926      24.70853217       1.22349787      -1.01084733      -0.57651103
Pt       5.59203614       1.59026276      24.70582241      -0.27600384       0.42933622      -0.19256999
Pt       8.52100608       1.66261325      24.67641121      -0.88201267      -0.48373613      -0.53344226
Pt      12.65263338       4.06161614      24.68993935      -0.46601248       0.50200844      -0.67422324
Pt       4.25275582       4.01952446      24.63396770      -0.55839533      -0.05506223       0.27701068
Pt       6.91686330       4.02837383      24.54676454       0.64398426      -0.34144536       0.41727620
Pt       9.82323380       3.99697654      24.51650787       0.26381370       0.00782721      -0.14887846
Pt      13.85394899       6.54761042      24.59737421       0.26527205      -0.02705109      -0.00579990
Pt       5.52738330       6.37478813      24.66611823      -0.04299451       0.74420458      -0.84632313
Pt       8.35686143       6.39836846      24.60988496      -0.28756556       0.30421269      -1.01674700
Pt      11.04668716       6.43381848      24.57299628       0.71295899      -0.14827374       0.48379731
Pt      15.32595157       8.91533548      24.61361713      -0.35086125      -0.21677642      -0.71638733
Pt       6.86605266       8.86163812      24.53160157       1.07741284      -0.19523467      -0.35962099
Pt       9.70294215       8.77200265      24.64718114      -0.56905973       0.92560542      -0.05112279
Pt      12.38927243       8.96428869      24.65799155       1.34344494      -0.82236075       0.01570507
Pt       5.58840948       9.61486864      26.89649930       0.55111963       0.90857136       0.69914341
Pt       2.82942830       0.03915452      27.06852854       0.08035727      -0.05455393       0.73151183
Pt       5.64894677       0.03484145      27.13035093      -0.03334490      -0.38641420       0.00930842
Pt      13.99613755       9.56498910      27.02607903      -0.44225550       0.76528478      -0.36152875
Pt       1.48194003       2.52958991      27.03420163      -0.12186284      -0.58222407      -0.47971237
Pt       4.32126572       2.37906335      27.04904242      -0.42808613       0.64757431       0.34681022
Pt       7.12042939       2.51208737      27.09663195      -0.69379324      -0.69874388      -0.34719795
Pt       9.82378392       2.33804095      26.99013566       0.55209970       0.19724940       0.19634899
Pt       2.93296500       4.85435829      27.00524296      -0.09624437      -0.00646787      -0.65723985
Pt       5.72672894       4.90882425      27.09045697      -0.49183536      -0.57660389      -0.48765630
Pt       8.48823259       4.82231590      26.84126794      -0.77032775      -0.09447236      -0.00240475
Pt      11.09436351       4.82280061      26.91320211       1.17607999       0.10891837       0.91971248
Pt       4.23981405       7.30239133      26.94076255      -0.26651749      -0.87144798       1.72388804
Pt       6.99415539       7.24820227      26.85298660       0.37850627       0.54085475       1.20235360
Pt       9.70386250       7.30739328      27.07845346       0.73101640      -0.30877486       0.59721124
Pt      12.61914285       7.14949300      27.01244617      -0.80291778       0.50393933      -0.00095439
H        0.17055754       0.04618971      28.45643610      -0.10063221      -0.08344105      -0.21875359
H        8.53629593       9.59164433      28.67725554      -0.18338189       0.14921862      -0.98965263
H       11.21874493       9.66563375      28.68494545       0.03499940       0.02397991      -0.05582920
H       14.07567416       9.65016247      28.55336019      -0.04441967      -0.03596099       0.42486045
H        1.64695374       2.50006937      28.53900384      -0.05227799      -0.00681522       0.85672659
H        4.25303983       2.53637280      28.60675560       0.07867705      -0.15527870      -0.16236080
H        6.88080754       2.75854279      28.60068568       0.15391062      -0.12789285       0.17986745
H        9.89370186       2.35428067      28.54526731      -0.03152559      -0.04027196       0.00472877
H        3.25519388       4.73960935      28.47958917      -0.06117760       0.06395465       0.81355751
H        5.62685957       4.94275245      28.61448721       0.12358240       0.01642806       0.44261083
H        8.63015782       4.65401129      28.34580108      -0.06466094       0.04372598       0.76121759
H       11.11920534       4.67818884      28.50999640       0.00013627       0.16908656      -0.67789584
H        4.25904636       7.28915590      28.59628611      -0.02883570       0.01976099      -1.35400629
H        7.15612532       7.28552918      28.44006627      -0.19870026      -0.00615471      -0.55895168
H        9.60200030       7.09717942      28.66121948       0.15236230       0.19125924      -0.72582966
H       12.55573422       7.11488958      28.56249646       0.05925596      -0.01434650       0.06360781
H        0.18195599       0.11256250      18.21272423      -0.05263923      -0.10647427      -0.21346380
H        8.58220602       9.66880113      18.27394158      -0.09071701       0.06352425      -0.45022875
H        5.52722072       0.05281697      18.27109603       0.08021457      -0.03232160       0.75138646
H       14.14960486       9.54627375      18.23398483      -0.05903459      -0.01499416      -0.89099199
H        1.52665253       2.40077913      18.33161159       0.01501936       0.06425830      -0.26960614
H        4.44865609       2.60872977      18.40668256      -0.22874412      -0.20101477       0.67225480
H        7.26446190       2.26448073      18.41713207      -0.08536937       0.03048480      -0.54225498
H        9.84917082       2.22974404      18.22080547      -0.02162427       0.04211750      -0.98792309
H       13.92340865       4.94103289      18.40192019       0.08312300      -0.10779428      -0.37502295
H        5.81253569       4.97875189      18.36212420      -0.14941274      -0.15554249       0.18103036
H        8.66963644       4.80548635      18.32259776      -0.12200169       0.01301081      -0.62218386
H       11.06823017       5.36011255      18.31087686      -0.00302979       0.21675842      -1.52034950
H        4.42026313       7.07442511      18.40921790      -0.06714874       0.04992466      -0.59389120
H        7.00949046       7.19008106      18.19944936      -0.07542460       0.02719662       0.62702399
H        9.79567715       7.54208491      18.19877374       0.09202287      -0.29684880       0.70510095
H       12.90374636       7.14664332      18.20721735      -0.37707752       0.16414180       0.95037311
H        4.05653360       2.15476808      11.22394790       0.55143845       0.25823495       0.12402514
H        3.40690066       1.85077237      11.07337610      -0.54841405      -0.25473514      -0.13119441
H       11.12493017       0.84231654      37.98304779       0.12927611      -0.29489526       0.92914969
H       11.03350915       1.05770572      37.29736134      -0.12027004       0.28658959      -0.92536145
H        6.02615442       6.12215948      12.65198504       0.06750226      -0.01241869       0.05169126
H        5.46143121       6.22198405      12.17464655      -0.07046623       0.01341267      -0.06396982
H        3.73712858       1.93016272      37.18401638       0.24363647       0.86332536       0.67514783
H        3.96133817       2.51073216      37.65523018      -0.44075835      -0.83568829      -0.71155518
H        8.25814302       6.44643746       9.27210372       0.13775946       0.61624640       0.28704363
H        8.41247434       7.13250242       9.58241099      -0.15140586      -0.62475884      -0.28579357
H        6.14202405       2.07545945      38.05681739       0.00605315       0.19992206       0.06586087
H        6.45514191       1.41851009      37.91894354       0.18757716      -0.24206012      -0.02236397
H       13.02417664       8.72941977       6.16843479       0.99499410      -0.47886696      -0.35584250
H       13.69510961       8.40761332       5.92590310      -0.99225664       0.47493884       0.36493444
H       11.53628031       5.62572635      39.12108291      -0.63480258      -0.08753784       0.86271471
H       11.97051829       5.67607942      38.54637461       0.65514004       0.07314146      -0.85373408
H        5.39470059       4.62959259       7.12432208      -0.79366976      -0.77100962      -0.12570125
H        5.91222716       5.12567486       7.20227990       0.81648499       0.77871370       0.12518008
H        6.36495887       5.43942854      36.73324536       0.09346938      -0.02113884       0.03190302
H        7.08093662       5.29311251      36.90791248      -0.09641818       0.02086013      -0.01474913
H       13.02243456       6.65759305      11.16127519       0.22299232      -0.37983322      -0.27795941
H       12.70852978       7.19122029      11.55802550      -0.21692528       0.35764152       0.27617404
H       10.65703528       9.66677780      42.25824540      -0.88653725       0.10989898      -0.83010721
H        4.63208255       0.03511656      41.54021420       2.18133831      -0.49401772       5.36792231
H        7.75618894       0.46467688      10.32353389      -0.03379690      -0.03023335       0.05839696
H        7.40074880       0.08362797      10.86385369       0.04228051       0.05356637      -0.06830753
H        4.28285041       4.69697746      39.13342074       0.04823313       0.04717846       0.07398530
H        4.68934947       4.99572982      39.69028334      -0.05035480      -0.04113354      -0.08357860
H        8.70675882       7.14520349       3.84670882      -0.15986709      -0.13784225       0.28289646
H        8.36250668       6.84714950       4.45227837       0.15808481       0.13696165      -0.27855927
H        4.39695012       0.13444531      40.69746984      -0.93851751       0.30531415      -3.67913508
H        4.37524836       0.00677335      39.94325232      -0.34028089       0.10136395      -0.86288387
H        4.26748154       2.68609936       5.55340964       0.17095703      -0.00993423       0.14142174
H        3.69821130       2.71362990       5.07758815      -0.17044127       0.01135759      -0.13586199
H       13.63078648       7.57353892      37.04014166       0.30964518      -0.60388535       0.31372577
H       13.32819229       8.16595211      36.73951844      -0.31536767       0.60844624      -0.30294335
H        6.00924601       9.14912704       8.51514201      -0.48979056       0.39071053       0.99896133
H        5.68211790       9.41237913       9.17692412       0.48741743      -0.39686009      -0.99157739
H       10.09539634       7.75306553      37.22297657       0.20820178      -0.10627785      -1.36417067
H       10.00141663       7.81224987      37.92964939      -0.12185796       0.12451340       1.28000069
H       13.85040279       5.24016935       8.82082174      -0.22530888       0.18454917       0.36272302
H        3.02626176       4.94447161       8.24415889       0.21026124      -0.17973118      -0.34916896
H        5.42744663       8.32175561      43.52838647      -0.05249293      -0.05778298      -0.08003896
H        5.06403583       7.93512460      42.99691506       0.05393249       0.05704301       0.07631755
H        9.38176180       3.28440696      10.01560304       0.44555473       0.28029218       0.87403375
H        9.72292944       3.49930618      10.68159893      -0.45230928      -0.28123936      -0.87845910
H        7.49009402       8.03327863      39.01072842      -1.07854414       0.46988329      -0.33263674
H        8.11485383       7.74637979      39.22134394       0.95986027      -0.48248735       0.38422492
144
Lattice="11.174675241468789 0.0 0.0 5.587337620734394 9.677552638152974 0.0 0.0 0.0 46.84306309572773" Properties=species:S:1:pos:R:3:forces:R:3 energy=40.88911556525561 pbc="T T T"
Pt       5.64904357       9.67596086      19.74444020      -0.30726844       0.14036219      -0.27647999
Pt       2.78668802       0.03301447      19.78332508       0.23953222      -0.76401085       0.25562835
Pt      11.14272939       9.67742823      19.86684410       0.35839999      -0.18434194       0.87895614
Pt      13.97534815       9.58249580      19.73400625       0.09158605       0.97675395      -0.39223492
Pt       1.47658496       2.41071584      19.86705251      -0.58775139       0.11334298      -0.60466075
Pt       4.19141692       2.35848877      19.97176934       0.47841987       0.60558635      -0.26811233
Pt       7.05203669       2.37219059      19.92230717      -0.63781363       0.15982828       1.50165653
Pt       9.73704437       2.41726860      19.70248349       0.60411239      -0.03610395       0.15207331
Pt      13.97478376       4.85011034      19.92998740      -0.07711665      -0.13433346      -0.73259836
Pt       5.62301302       4.83014744      19.90696369      -0.16493963       0.07327825      -0.48581821
Pt       8.36743819       4.89999595      19.79927430       0.45456156      -0.54133320       0.09929113
Pt      11.23655135       4.84802002      19.69108224      -0.65042204       0.00170233      -0.40615463
Pt      15.29223930       7.29215918      19.88518176       0.67007709      -0.47568807       0.06678852
Pt       6.92430875       7.21755622      19.78377135       0.42758888       0.47993654       0.14972588
Pt       9.86602057       7.25094781      19.76374842      -0.58587807       0.13427073       0.46944928
Pt      12.59485363       7.24837724      19.78222464      -0.15024269       0.14561778       0.82785237
Pt       1.34897806       0.76871707      22.13966926       0.35329816      -0.05147375       0.76926154
Pt       4.18672232       0.78230537      22.34752401      -0.47529623      -0.18944892      -0.00524762
Pt       6.89951841       0.85830163      22.36228465       0.44185260      -0.20035785      -0.35173491
Pt       9.73578713       0.89069924      22.11556949      -0.06543381      -0.53438765       0.67976451
Pt       2.80195432       3.22526940      22.32014279      -0.93722862      -0.07659549      -0.09399568
Pt       5.45132105       3.29227094      22.26493833       1.04046154      -0.38685310       0.10563481
Pt       8.34651717       3.22506344      22.30747105      -0.16568473      -0.05339796      -0.59306586
Pt      11.17430007       3.18196251      22.07205726       0.04495189       0.37395412       0.75238329
Pt       4.07042604       5.67743233      22.31623357       0.47506329       0.16005170      -0.10498072
Pt       6.96408176       5.65856741      22.26082528      -0.21679184       0.09262092      -0.07228811
Pt       9.72713972       5.54756192      22.14420639       0.27162525       0.62145597       0.35458523
Pt      12.49067558       5.66132321      22.31907925       0.12379991      -0.43083516      -0.40829816
Pt       5.47381166       8.04604581      22.20394262       0.70704418       0.24081725       0.29260442
Pt       8.36406388       8.04245355      22.13768335      -0.24952841       0.02686186       0.56752813
Pt      11.12576926       7.97811444      22.30369809       0.07314635       0.64486486      -0.47393456
Pt      13.96251148       8.17350238      22.21486106      -0.75726861      -0.21882094       0.47088602
Pt      11.32905276       1.64205975      24.58881557      -1.37182295       0.08219817      -0.42458507
Pt       2.74223266       1.68548490      24.70582463       1.18890285      -0.88694096      -0.48283085
Pt       5.58260226       1.59595281      24.71243305      -0.14384706       0.34498474      -0.32693842
Pt       8.51598759       1.66742428      24.68392273      -0.87281477      -0.57777858      -0.62051702
Pt      12.65672970       4.06822499      24.69758383      -0.46216199       0.38261336      -0.64862639
Pt       4.25317513       4.01691384      24.64481467      -0.56932479      -0.07958876       0.21368055
Pt       6.92639838       4.03001437      24.55379701       0.56289965      -0.38709891       0.38685876
Pt       9.82296214       3.99323977      24.52169602       0.27041787       0.06850217      -0.16191395
Pt      13.85489320       6.55142389      24.58778832       0.24551852      -0.05459044       0.13185467
Pt       5.52474081       6.36320714      24.66938812      -0.02125480       0.84909838      -0.85428816
Pt       8.34920022       6.40050025      24.61155170      -0.18596019       0.32261640      -1.05725598
Pt      11.04317867       6.43962909      24.58237007       0.73197770      -0.16584234       0.33495590
Pt      15.32263422       8.90981350      24.61950866      -0.30364087      -0.13461320      -0.83401144
Pt       6.87673409       8.86971859      24.52990638       0.91744167      -0.24119778      -0.42393097
Pt       9.70885209       8.77874385      24.65166670      -0.59192097       0.89608556      -0.14877304
Pt      12.39455263       8.96557780      24.65757599       1.30385149      -0.76334000       0.07993689
Pt       5.58840677       9.61335955      26.89471303       0.55547506       0.88581091       0.07884803
Pt       2.83422200       0.03747980      27.07320820      -0.01511089      -0.04886999       0.28570563
Pt       5.65747946       0.03962035      27.13130595      -0.10881373      -0.39492920      -0.31577983
Pt      13.99259191       9.55509024      27.03694691      -0.36083457       0.81601679      -0.28273755
Pt       1.48092593       2.53163620      27.04222532       0.04167759      -0.71462405       1.08174312
Pt       4.32656429       2.37740137      27.05105732      -0.47422689       0.61737800       0.16875823
Pt       7.11984609       2.51135860      27.09975878      -0.68501854      -0.71733683      -0.33353794
Pt       9.81258112       2.33774503      26.99271104       0.61281604       0.17513868      -0.76330405
Pt       2.93797472       4.85524472      27.00647117      -0.01348467      -0.10905052       0.28671324
Pt       5.72621701       4.90285207      27.09613811      -0.60748976      -0.52832782       0.83142620
Pt       8.48945683       4.82424891      26.83957470      -0.69719273      -0.18945432       0.76863265
Pt      11.10192915       4.81264056      26.91136459       1.03926694       0.29050845       0.82745719
Pt       4.24224227       7.30583311      26.94970884      -0.27617481      -0.92723781       0.70356983
Pt       6.99429498       7.24350057      26.84825066       0.35041979       0.51391423       1.04367816
Pt       9.70404496       7.30972262      27.07545556       0.87356168      -0.12384285      -1.22350454
Pt      12.61465584       7.14990405      27.01533263      -0.71316600       0.51187325       0.90450776
H        0.29261719       0.02658152      28.40284365      -0.09006678      -0.03253011       0.41007558
H        8.50648327       9.51541559      28.64414428      -0.10680929       0.18777180      -0.53461516
H        5.56646663       0.04973224      28.66425158       0.07798671      -0.02223285       0.32251176
H       14.16578953       9.61387370      28.56303853      -0.09954618      -0.02442265       0.32524842
H        1.59019924       2.41047195      28.64924874      -0.15844604       0.12477719      -0.86452091
H        4.30531039       2.45170664      28.60212975       0.01789411      -0.06186255       0.05815039
H        6.89353581       2.71721968      28.61104625       0.15734355      -0.11094825       0.18551359
H        9.88436562       2.26902392      28.49425249       0.01487075      -0.01635505       1.04329383
H        3.14544157       4.70854546      28.54864095      -0.15284258       0.15146215      -0.14365114
H        5.61545989       4.88711563      28.70238610       0.19310194       0.04919009      -0.91750079
H        8.59116973       4.63746488      28.38697319      -0.08929493       0.13467079      -0.01442260
H       11.07217029       4.78512754      28.50420944       0.05452050       0.02566707      -0.54480934
H        4.26651003       7.33198719      28.52248349      -0.01031681      -0.04387099      -0.27839652
H        7.18008045       7.25475458      28.42166251      -0.20434538       0.01345484      -0.36999026
H        9.68324717       7.10468135      28.55683714       0.02871742      -0.04644544       1.18492174
H       12.58780341       7.16114869      28.63210396       0.04437647      -0.04286672      -0.94440794
H        0.18008983       0.18501609      18.19061631      -0.08543905      -0.23201612       0.26968199
H        8.51350331       9.67295145      18.24852135      -0.04721934       0.04319197      -0.20731474
H       11.14291262       9.61337626      18.35486033       0.04294051       0.06376028      -0.72781587
H       14.22460940       9.66622804      18.16877706      -0.30044937      -0.12626149       0.54600334
H        1.52264958       2.24863730      18.30619953       0.01172372       0.22011910       0.17674124
H        4.36924847       2.55353214      18.43783281      -0.05393841      -0.06435806      -0.05125134
H        7.32454277       2.31928099      18.46537874       0.05332905      -0.02343175      -1.55255306
H        9.84523276       2.12721468      18.17948999      -0.08815131       0.26433438       0.02409715
H       13.87218416       5.00594091      18.34470100       0.16801260      -0.23515852       0.63597864
H        5.82067498       5.09524325      18.35759928      -0.18195261      -0.29901573       0.40164208
H        8.65953437       4.88173717      18.27847884      -0.20820178      -0.01057392      -0.12593830
H       11.07422991       5.20069278      18.13923181       0.23850660      -0.36667559       0.69529527
H        4.47571943       7.09200687      18.40210224      -0.15221061       0.08293942      -0.38151136
H        7.06628541       7.21861045      18.23559246      -0.07568274       0.01489800       0.02405062
H        9.85997672       7.47840608      18.24482797       0.01256395      -0.08453248      -0.30920348
H       12.83177624       7.22124254      18.28596683      -0.05827843       0.04183725      -0.68881738
H        4.21122658       2.25844616      11.16029614      -1.57997596      -0.60848659      -0.18512562
H        3.46693772       1.97082999      11.07470600       1.58493590       0.61401856       0.17819186
H       11.16045824       0.81340513      38.10828189      -0.10269141       0.19551004      -0.61124843
H       11.03170156       1.04768413      37.38939953       0.11199649      -0.20483132       0.61425227
H        5.86659676       5.97992214      12.68173492      -0.31430942       0.15484804      -0.37039134
H        5.39508152       6.21503690      12.13041906       0.30930167      -0.15572838       0.35892680
H        3.70930172       2.01600094      37.13593869      -0.79998106      -0.72284281      -1.05597401
H        4.04842578       2.38315906      37.64398934       0.53858113       0.76650631       1.00535572
H        8.27343449       6.43733797       9.18414217       0.02289645       0.15087388       0.07027186
H        8.38744132       7.12453253       9.47129442      -0.03678015      -0.15828046      -0.07061047
H        6.08717040       2.07410516      38.03294575       0.43796742      -0.70420671      -0.11502422
H        6.37027328       1.37526012      37.88772290      -0.17545210       0.65564680       0.17181423
H       12.99335841       8.75822261       6.13675887      -0.39531693       0.14606233       0.06928481
H       13.67578274       8.50321685       6.02288928       0.39785486      -0.15041547      -0.05941151
H       11.58682525       5.56699173      39.18595186       0.45085454       0.12322193      -0.63116038
H       12.02043897       5.69924568      38.56268731      -0.43966845      -0.13378659       0.63997948
H        5.32297204       4.66120103       7.13147843       1.51986098       0.98373115      -0.11043455
H        5.99504957       5.10164696       7.08267193      -1.47410941      -0.97105664       0.11044972
H        6.36194393       5.43224893      36.84813124       1.39032161      -0.29786414      -0.08018860
H        7.13534970       5.26766485      36.79888656      -1.39107978       0.29723805       0.09395789
H       13.06475787       6.61792415      11.07718016       0.00179463      -0.00619533       0.00397673
H       12.68517508       7.14635561      11.44717434       0.00500954      -0.01397935      -0.00538749
H       10.57507404       9.63063863      42.25299871       0.45253167      -0.05695405       1.41776526
H       10.13462344       9.64161048      41.65221490       0.15462667      -0.39908102       2.61836720
H        7.85904525       0.38356994      10.26714972      -0.59393823      -0.30306649       0.72038639
H        7.38885092       0.13759639      10.83521893       0.60055780       0.32550684      -0.72899294
H        4.35606006       4.72954755      39.10409043       0.08218481       0.08575530       0.10715665
H        4.77404846       5.11260254      39.60003383      -0.08778416      -0.08491892      -0.11946554
H        8.74817519       7.27716435       3.91535617       0.19526656       0.30067769      -0.40629038
H        8.48370216       6.87102086       4.46702278      -0.19732986      -0.30165830       0.41119501
H        4.45282493       0.10282049      40.74413673      -0.46440914       0.17395365      -5.54404736
H        4.41206003       0.02969320      39.89589653      -0.13335748       0.29784971       1.51016152
H        4.33881541       2.64062996       5.69069477      -0.27759406       0.00994786      -0.30442071
H        3.82432645       2.67006731       5.13292841       0.27326199      -0.01600975       0.30424380
H       13.61372044       7.50611135      37.08866872      -0.29410750       0.66158319      -0.16870733
H       13.30323353       8.18757149      36.91050300       0.29445535      -0.65429747       0.17622599
H        6.02845993       9.21844757       8.46822102       0.87462044      -0.46874994      -1.34759700
H        5.65819407       9.41455921       9.04092306      -0.87686634       0.46093404       1.35490692
H       10.09039799       7.82660662      37.15732725      -0.03354210       0.00873764       0.53578758
H       10.00999059       7.83620919      37.91632991       0.10857538       0.00586237      -0.60839224
H       13.89316485       5.35790157       8.72084656       0.51816756      -0.55255789      -1.03798687
H        3.03994231       5.02075942       8.08605170      -0.54983765       0.55988014       1.05614603