144
Lattice="11.174675241468789 0.0 0.0 5.587337620734394 9.677552638152974 0.0 0.0 0.0 46.84306309572773" Properties=species:S:1:pos:R:3:forces:R:3 energy=42.408849309812624 pbc="T T T"
Pt       5.64787438       9.67455690      19.74513320      -0.30876279       0.10222090       0.13007186
Pt       2.78708424       0.03186454      19.78699123       0.22358264      -0.73403150       0.53378165
Pt       5.55441300       0.00101344      19.86629685       0.35318449      -0.16114520      -0.18696061
Pt      13.97831766       9.58043357      19.73148101      -0.12646306       0.97735584       0.57717079
Pt       1.47644193       2.41089966      19.87300087      -0.58556855       0.15920529      -0.39735630
Pt       4.19138385       2.36090600      19.97137590       0.57853144       0.69947535      -0.85294527
Pt       7.05455616       2.37526677      19.92532253      -0.66192877       0.13445790       1.75231290
Pt       9.73642859       2.41928131      19.70583972       0.53445423       0.09914843       1.10431945
Pt      13.97357889       4.85225271      19.93260934       0.00307735      -0.23031275      -0.23504564
Pt       5.62259884       4.82871204      19.91029882      -0.17262028       0.05919374      -0.46252942
Pt       8.36666634       4.90112366      19.80818944       0.33885136      -0.57186919       0.56681412
Pt      11.23483757       4.84958651      19.69243078      -0.46866021      -0.32873973       1.00299406
Pt      15.29319949       7.29902497      19.88763427       0.62177199      -0.52796400       0.33391947
Pt       6.92430165       7.21502800      19.78749590       0.41485190       0.46373424      -0.47013217
Pt       9.86651279       7.24843464      19.76758414      -0.63891017       0.35734352      -0.40768316
Pt      12.59453721       7.24800858      19.78746287       0.10412969       0.10092326      -0.45162255
Pt       1.34447811       0.76677622      22.14051530       0.39775509      -0.03769083       0.76658708
Pt       4.18801419       0.78097899      22.34492050      -0.50116593      -0.20997892       0.00339668
Pt       6.89579377       0.85959563      22.35967215       0.50047016      -0.23958981      -0.36428395
Pt       9.74023810       0.88593993      22.12162467      -0.11430252      -0.45921269       0.62137395
Pt       2.80425273       3.22030765      22.32444547      -0.98145986      -0.08153123      -0.12116813
Pt       5.44809187       3.29268414      22.26262946       1.08490813      -0.38927817       0.12099715
Pt       8.34401726       3.22569397      22.31081615      -0.11873227      -0.06145862      -0.59346181
Pt      11.17450959       3.18598102      22.06951670       0.02972581       0.31356972       0.83390754
Pt       4.06815543       5.67794886      22.31737169       0.51479375       0.16617478      -0.10313699
Pt       6.96186882       5.66180381      22.26275159      -0.20961332       0.08366088      -0.07872744
Pt       9.73243823       5.55022064      22.14244500       0.22830190       0.56391549       0.39140421
Pt      12.49602228       5.66065297      22.31742412       0.12887166      -0.43314299      -0.35430500
Pt       5.47398833       8.04768561      22.20941503       0.74069786       0.21746701       0.24035369
Pt       8.36857098       8.03854276      22.13697794      -0.29271781       0.05771150       0.56161612
Pt      11.12570031       7.96990734      22.30611865       0.11928789       0.75290185      -0.59504741
Pt      13.96715019       8.17371894      22.21721224      -0.82555199      -0.22010650       0.51943564
Pt      11.33207430       1.64083907      24.59069769      -1.38551569       0.08183282      -0.42180544
Pt       2.74513076       1.69111670      24.70774126       1.21918607      -0.97659969      -0.54078197
Pt       5.58908435       1.59208707      24.70774482      -0.23434605       0.40490869      -0.23218040
Pt       8.51932413       1.66409407      24.67916500      -0.88373345      -0.51780069      -0.57848233
Pt      12.65397914       4.06379673      24.69256721      -0.47020596       0.46486115      -0.66631967
Pt       4.25322145       4.01872371      24.63767844      -0.56920397      -0.06309282       0.25263354
Pt       6.91943248       4.02882146      24.54903476       0.62277007      -0.35421473       0.40608701
Pt       9.82282690       3.99571608      24.51883145       0.27062225       0.03079436      -0.15703966
Pt      13.85425506       6.54870559      24.59401131       0.25674960      -0.03076917       0.05008304
Pt       5.52658261       6.37101285      24.66728630      -0.03749054       0.78239268      -0.83209699
Pt       8.35430989       6.39919786      24.61036140      -0.25615233       0.31181699      -1.02340150
Pt      11.04553481       6.43560519      24.57606078       0.71973413      -0.15789275       0.44231206
Pt      15.32492619       8.91334713      24.61558944      -0.33387116      -0.19221415      -0.75797105
Pt       6.86946199       8.86424830      24.53097695       1.02850568      -0.21290484      -0.37710860
Pt       9.70519368       8.77419512      24.64856059      -0.58180624       0.91416019      -0.07464479
Pt      12.39083594       8.96485495      24.65781276       1.33154440      -0.80838138       0.03626927
Pt       5.58814843       9.61440734      26.89582212       0.57301128       0.90000111       0.51787138
Pt       2.83119236       0.03867609      27.06988812       0.06506614      -0.07902749       0.79906857
Pt       5.65187858       0.03660127      27.13053616      -0.06304885      -0.38574702      -0.12034126
Pt      13.99474216       9.56134379      27.02977285      -0.44223133       0.76883805      -0.67533475
Pt       1.48135611       2.52999587      27.03665991      -0.03591420      -0.60811734       0.17912723
Pt       4.32269156       2.37835701      27.04940191      -0.44176519       0.63903183       0.36322311
Pt       7.12058621       2.51187626      27.09779184      -0.69471031      -0.70777720      -0.36113718
Pt       9.82013722       2.33775741      26.99099714       0.56601787       0.18345259      -0.41698694
Pt       2.93452449       4.85477662      27.00565272      -0.09072190      -0.02049761      -0.54470342
Pt       5.72636873       4.90700294      27.09225892      -0.54148823      -0.55370355       0.10300791
Pt       8.48826731       4.82289498      26.84078859      -0.74265188      -0.11683351       0.19502230
Pt      11.09699446       4.81963236      26.91256842       1.12138951       0.15390471       1.15420091
Pt       4.24074951       7.30361687      26.94345256      -0.26258859      -0.88305473       1.69612479
Pt       6.99395815       7.24642346      26.85153330       0.39986545       0.53586400       1.44717073
Pt       9.70339769       7.30806242      27.07761592       0.78656375      -0.28098303       0.21990056
Pt      12.61774293       7.14973122      27.01345766      -0.78319305       0.49158442       0.48850656
H        0.21798049       0.03942025      28.43957134      -0.11650055      -0.06588247      -0.03473381
H        8.52882521       9.56208061      28.68346344      -0.17197467       0.18959753      -1.06815791
H        5.61020471       0.00821584      28.67698839       0.05336377       0.00639845       0.09339482
H       14.10774676       9.63772285      28.53958541      -0.03669684      -0.01585085       0.74986720
H        1.63130356       2.46878516      28.57806101      -0.11883794       0.02338753       0.14509456
H        4.26910677       2.50832002      28.61008966       0.06032837      -0.12885752      -0.16923028
H        6.88391887       2.74776746      28.60278504       0.15376613      -0.12185693       0.19966881
H        9.88884915       2.32464390      28.51181159      -0.00454443      -0.02350503       0.66216606
H        3.22337344       4.73014716      28.49084981      -0.07185309       0.07183586       0.70829988
H        5.61839962       4.91968988      28.64873161       0.15961564       0.02027392      -0.16464214
H        8.61655435       4.64687379      28.35537790      -0.07289310       0.06672759       0.56609219
H       11.09773240       4.71217080      28.53032911       0.02612318       0.13590544      -0.91799396
H        4.26191469       7.30665032      28.59617773      -0.02852999      -0.01000005      -1.32770181
H        7.16566477       7.27514975      28.45682075      -0.23172507      -0.00422484      -0.81453377
H        9.62737387       7.09455014      28.63403119       0.10394457       0.14777185      -0.32556647
H       12.56448764       7.12555465      28.59597194       0.06603776      -0.01039163      -0.47138479
H        0.18516054       0.13979439      18.21251680      -0.05794136      -0.13618080      -0.16748527
H        8.56358187       9.66995982      18.27283779      -0.06504454       0.05414641      -0.51285261
H        5.53514326       0.01213931      18.29350263       0.06737011       0.02284811       0.39819011
H       14.17655893       9.58477398      18.21715463      -0.12044411      -0.02675362      -0.46557179
H        1.52619546       2.34508751      18.31899811       0.01210964       0.11380115      -0.06063587
H        4.42556482       2.59698108      18.40999255      -0.18417636      -0.17479132       0.56663185
H        7.28270334       2.28384694      18.47355226       0.09160841      -0.05431893      -1.82680726
H        9.84807299       2.19161989      18.22292295      -0.02606379       0.05799586      -0.96034360
H       13.91177458       4.97080150      18.37614233       0.10565538      -0.16160131       0.11795014
H        5.81906038       5.02418799      18.35441324      -0.17474195      -0.21925443       0.36296856
H        8.67035775       4.83246295      18.31814067      -0.11681525      -0.00009385      -0.64823765
H       11.06993198       5.31739571      18.26284896       0.08182691      -0.03460577      -0.82392448
H        4.44289274       7.07404384      18.41607716      -0.06294910       0.04402398      -0.67097342
H        7.03431680       7.19570233      18.19626557      -0.10100297       0.02890203       0.66830587
H        9.81617090       7.52193799      18.20150869       0.06472445      -0.25396949       0.58708060
H       12.88444025       7.17006229      18.22375271      -0.30453664       0.12292034       0.64702380
H        4.08099232       2.17947086      11.19798731       2.05024743       0.91446668       0.37373352
H        3.45254058       1.89944581      11.08248697      -2.04734659      -0.91088384      -0.38013351
H       11.13308152       0.82797908      38.03858490      -0.11970080       0.27735212      -0.87451738
H       11.02771075       1.06303142      37.30716407       0.12905422      -0.28607279       0.87743348
H        5.97328263       6.07545117      12.66743215       0.04504367      -0.01274959       0.03849353
H        5.44270551       6.21785370      12.16154252      -0.04876972       0.01366670      -0.04984547
H        3.72183886       1.94295318      37.15435236       0.44593269       1.05948234       0.97573066
H        4.00117219       2.48116464      37.66697957      -0.67121714      -1.02462995      -1.01930523
H        8.26460544       6.45701895       9.24933526      -0.13531512      -0.64361429      -0.27175406
H        8.40188359       7.11562925       9.53542715       0.12194409       0.63523066       0.27254725
H        6.12004547       2.07106922      38.05371354      -0.12363408       0.53579581       0.14146082
H        6.41814134       1.41804586      37.91404380       0.34686294      -0.58199704      -0.09177605
H       13.01241116       8.73858070       6.15362426       0.39042282      -0.17344175      -0.10643365
H       13.68644286       8.44201537       5.96409303      -0.38812837       0.16985558       0.11555747
H       11.55960715       5.60585751      39.14858292      -0.09015059      -0.03082624       0.14453869
H       11.99677260       5.68288817      38.55189931       0.10830104       0.01716751      -0.13546193
H        5.38183350       4.65212225       7.12505204      -1.11945939      -0.93977225      -0.07710250
H        5.92958490       5.10789698       7.16076504       1.14388025       0.94845253       0.07717578
H        6.38826199       5.42937635      36.77416879      -1.48314250       0.30813465      -0.19014132
H        7.07993107       5.28470035      36.86712088       1.48037112      -0.30844885       0.20672469
H       13.04004023       6.63545403      11.12846087      -0.28941780       0.45707431       0.33486205
H       12.69083052       7.18860052      11.52793883       0.29577073      -0.47764134      -0.33722284
H       10.60581256       9.66159066      42.14295654      -0.05997073       0.00509850       1.10115087
H        4.57017390       0.01620076      41.48816360       2.02380681      -1.27363694       9.26625824
H        7.78201367       0.42774081      10.31354987       0.60396272       0.51177889      -0.82552218
H        7.40147368       0.10949404      10.83672655      -0.59545416      -0.48949155       0.81633943
H        4.30712410       4.71063842      39.12714432       0.01385259       0.02311293       0.02609798
H        4.71976660       5.04255599      39.65790282      -0.01682659      -0.01806663      -0.03772246
H        8.72916396       7.19994224       3.84896963      -0.66346115      -0.70303738       1.23780918
H        8.39234836       6.84274449       4.47644073       0.66144413       0.70194876      -1.23252571
H        4.45800633       0.12129501      40.80102047      -1.45734358       1.10126710      -9.25761509
H        4.41464095       0.00673054      40.02342576      -0.49400306       0.18265530      -1.11195469
H        4.29150664       2.67170982       5.59575419       0.15966114      -0.00945035       0.14403965
H        3.74331165       2.69765043       5.09550148      -0.16046925       0.00997562      -0.13972481
H       13.63469795       7.54366192      37.05576869      -0.08747434       0.18442628      -0.07130698
H       13.32239395       8.17696920      36.78995357       0.08395321      -0.17931980       0.08135434
H        6.02821033       9.15935764       8.47319626      -0.99747038       0.71283150       1.83815253
H        5.65578650       9.42712868       9.15675465       0.99473494      -0.71968013      -1.83072662
H       10.09266991       7.77401276      37.19076383      -0.00457476       0.01839547       0.24521513
H       10.00221124       7.82021390      37.93879640       0.08749336       0.00077570      -0.32549989
H       13.87397169       5.26874169       8.77589790      -0.55087125       0.50218457       0.97714967
H        3.01936114       4.97405226       8.20338791       0.53502887      -0.49723879      -0.96468878
H        5.37871985       8.33196785      43.54277333       0.22951649       0.26806143       0.37551272
H        5.05323090       7.94946580      43.00621296      -0.22825587      -0.26888651      -0.37956324
H        9.37025390       3.33131896      10.03661777      -0.61482489      -0.35620117      -1.04923022
H        9.71772874       3.53230973      10.63218761       0.60812896       0.35506013       1.04479742
H        7.46987569       8.01706655      39.01668782      -1.17084241       0.50852388      -0.36074096
H        8.09384527       7.73256552      39.22541634       1.05833066      -0.51832467       0.41009897
144
Lattice="11.174675241468789 0.0 0.0 5.587337620734394 9.677552638152974 0.0 0.0 0.0 46.84306309572773" Properties=species:S:1:pos:R:3:forces:R:3 energy=38.321728483980365 pbc="T T T"
Pt       0.00000000       0.00000000      20.00000000      -0.00708133       0.00011647      -0.49189398
Pt       2.79366881       0.00000000      20.00000000       0.00809975       0.00310152      -0.49334845
Pt       5.58733762       0.00000000      20.00000000      -0.00075102      -0.05314445      -0.45344776
Pt       8.38100643       0.00000000      20.00000000       0.01841244       0.01163116      -0.49625328
Pt       1.39683441       2.41938816      20.00000000      -0.00018975      -0.00168664      -0.49317181
Pt       4.19050322       2.41938816      20.00000000      -0.04065506       0.01957150      -0.43500549
Pt       6.98417203       2.41938816      20.00000000       0.06276706       0.02361533      -0.45267230
Pt       9.77784084       2.41938816      20.00000000      -0.00737598      -0.00672215      -0.49283525
Pt      13.96834405       4.83877632      20.00000000       0.00337586       0.00127115      -0.49237865
Pt       5.58733762       4.83877632      20.00000000       0.00077339      -0.00992035      -0.49214157
Pt       8.38100643       4.83877632      20.00000000      -0.00483085      -0.00149767      -0.49557710
Pt      11.17467524       4.83877632      20.00000000       0.00023166      -0.00002648      -0.49411234
Pt       4.19050322       7.25816448      20.00000000      -0.00485090       0.00505736      -0.49290136
Pt       6.98417203       7.25816448      20.00000000       0.00116831      -0.00102767      -0.49378863
Pt       9.77784084       7.25816448      20.00000000       0.00025274       0.00322211      -0.49268022
Pt      12.57150965       7.25816448      20.00000000       0.00090889       0.00363914      -0.49157491
Pt       1.39683441       0.80646272      22.28102103      -0.00011596      -0.00347716       0.26470408
Pt       4.19050322       0.80646272      22.28102103      -0.00036972      -0.00042346       0.25782818
Pt       6.98417203       0.80646272      22.28102103      -0.00147067      -0.00047283       0.26236054
Pt       9.77784084       0.80646272      22.28102103       0.00304547       0.00148147       0.27697879
Pt       2.79366881       3.22585088      22.28102103      -0.00756033       0.00415233       0.27949667
Pt       5.58733762       3.22585088      22.28102103       0.00042243      -0.00022986       0.25431296
Pt       8.38100643       3.22585088      22.28102103       0.01034123       0.00547362       0.28567967
Pt      11.17467524       3.22585088      22.28102103      -0.00235436      -0.00088035       0.26503396
Pt       4.19050322       5.64523904      22.28102103       0.00337894       0.00145756       0.26539752
Pt       6.98417203       5.64523904      22.28102103      -0.00110146       0.00048157       0.26645347
Pt       9.77784084       5.64523904      22.28102103      -0.00165271       0.00262664       0.26312956
Pt      12.57150965       5.64523904      22.28102103      -0.00080810       0.00083587       0.26697823
Pt       5.58733762       8.06462720      22.28102103       0.00001800      -0.00012316       0.26773953
Pt       8.38100643       8.06462720      22.28102103       0.00100016      -0.00025531       0.26457578
Pt      11.17467524       8.06462720      22.28102103      -0.00214533      -0.01043097       0.27832502
Pt      13.96834405       8.06462720      22.28102103       0.00024117      -0.00064123       0.27052969
Pt      11.17467524       1.61292544      24.56204206       0.00233508       0.00415439      -0.26475936
Pt       2.79366881       1.61292544      24.56204206      -0.00120945       0.00283876      -0.26616398
Pt       5.58733762       1.61292544      24.56204206      -0.00064020       0.00061886      -0.26827767
Pt       8.38100643       1.61292544      24.56204206       0.00018178       0.00133517      -0.26897368
Pt      12.57150965       4.03231360      24.56204206      -0.00611743       0.00211962      -0.25591940
Pt       4.19050322       4.03231360      24.56204206      -0.00174886      -0.00187819      -0.26843116
Pt       6.98417203       4.03231360      24.56204206      -0.00090426      -0.00232865      -0.27049807
Pt       9.77784084       4.03231360      24.56204206       0.00892790       0.00418524      -0.26109350
Pt      13.96834405       6.45170176      24.56204206      -0.00202269      -0.00201600      -0.26741248
Pt       5.58733762       6.45170176      24.56204206      -0.00173138       0.00060729      -0.26770970
Pt       8.38100643       6.45170176      24.56204206       0.00224380      -0.00165888      -0.26810387
Pt      11.17467524       6.45170176      24.56204206       0.00174861      -0.00793622      -0.25855684
Pt      15.36517846       8.87108992      24.56204206       0.00141256      -0.00050985      -0.26970437
Pt       6.98417203       8.87108992      24.56204206      -0.00041755       0.00109580      -0.26824707
Pt       9.77784084       8.87108992      24.56204206       0.00227928       0.00184991      -0.26967788
Pt      12.57150965       8.87108992      24.56204206      -0.00390473      -0.00199415      -0.27592438
Pt       0.00000000       0.00000000      26.84306310       0.00162494      -0.00249963       0.48840603
Pt       2.79366881       0.00000000      26.84306310      -0.00029722      -0.00109555       0.49176645
Pt       5.58733762       0.00000000      26.84306310       0.00342085       0.00213402       0.49191865
Pt       8.38100643       0.00000000      26.84306310      -0.01312831      -0.01363328       0.49639729
Pt       1.39683441       2.41938816      26.84306310      -0.00295060      -0.00277525       0.49165514
Pt       4.19050322       2.41938816      26.84306310      -0.00001800      -0.00029362       0.49307722
Pt       6.98417203       2.41938816      26.84306310       0.00208028      -0.00309947       0.49134070
Pt       9.77784084       2.41938816      26.84306310       0.00267883       0.00410477       0.49359888
Pt      13.96834405       4.83877632      26.84306310      -0.00011621       0.00021469       0.49464017
Pt       5.58733762       4.83877632      26.84306310       0.00141231       0.00154420       0.49247247
Pt       8.38100643       4.83877632      26.84306310      -0.00073225       0.00093768       0.49547192
Pt      11.17467524       4.83877632      26.84306310      -0.00070551       0.00012598       0.47995353
Pt       4.19050322       7.25816448      26.84306310       0.00231476       0.00585183       0.49088278
Pt       6.98417203       7.25816448      26.84306310      -0.00194453       0.00036690       0.49264088
Pt       9.77784084       7.25816448      26.84306310      -0.00257445      -0.00046048       0.49435839
Pt      12.57150965       7.25816448      26.84306310       0.00263770       0.00169821       0.49455509
H        0.00000000       0.00000000      28.39300000       0.01033249       0.00073019       0.18263370
H        2.79366881       0.00000000      28.39300000       0.00003908       0.00022214       0.19635594
H        5.58733762       0.00000000      28.39300000       0.00073174      -0.00040932       0.19658554
H        8.38100643       0.00000000      28.39300000      -0.03909337      -0.01345870       0.01951442
H        1.39683441       2.41938816      28.39300000       0.00040341      -0.00171981       0.19345085
H        4.19050322       2.41938816      28.39300000      -0.00049108      -0.00055073       0.18829142
H        6.98417203       2.41938816      28.39300000       0.00088163      -0.00098730       0.19131041
H        9.77784084       2.41938816      28.39300000       0.00149947       0.00458068       0.17018262
H       13.96834405       4.83877632      28.39300000       0.00105672      -0.00043066       0.18612218
H        5.58733762       4.83877632      28.39300000      -0.00026842      -0.00032370       0.18727377
H        8.38100643       4.83877632      28.39300000      -0.00100504      -0.00006145       0.18829861
H       11.17467524       4.83877632      28.39300000       0.00026200       0.00010979       0.18933965
H        4.19050322       7.25816448      28.39300000       0.00018692      -0.00252482       0.19298214
H        6.98417203       7.25816448      28.39300000       0.00085926       0.00051139       0.19121373
H        9.77784084       7.25816448      28.39300000      -0.00055767       0.00156606       0.19397818
H       12.57150965       7.25816448      28.39300000      -0.00014424       0.00190056       0.19076096
H        0.00000000       0.00000000      18.45000000       0.00007096      -0.00159846      -0.20306548
H        2.79366881       0.00000000      18.45000000      -0.00091428      -0.00120893      -0.19456233
H        5.58733762       0.00000000      18.45000000      -0.03179735      -0.08469292       0.00362783
H        8.38100643       0.00000000      18.45000000       0.05941177       0.00087649       0.07365645
H        1.39683441       2.41938816      18.45000000      -0.00092663       0.00065769      -0.19496292
H        4.19050322       2.41938816      18.45000000      -0.09097875       0.05485860      -0.04716278
H        6.98417203       2.41938816      18.45000000       0.07930337       0.06540810       0.02305483
H        9.77784084       2.41938816      18.45000000       0.00040109       0.00033424      -0.20260732
H       13.96834405       4.83877632      18.45000000      -0.00070551       0.00084692      -0.19906588
H        5.58733762       4.83877632      18.45000000       0.00050471      -0.00032062      -0.19538431
H        8.38100643       4.83877632      18.45000000       0.00016969      -0.00056590      -0.19054705
H       11.17467524       4.83877632      18.45000000       0.00020029      -0.00040392      -0.18896042
H        4.19050322       7.25816448      18.45000000       0.00061141       0.00100890      -0.20194885
H        6.98417203       7.25816448      18.45000000      -0.00191162       0.00089217      -0.19262758
H        9.77784084       7.25816448      18.45000000      -0.00015581      -0.00036433      -0.19216812
H       12.57150965       7.25816448      18.45000000       0.00191033      -0.00534275      -0.18605250
H        9.02914327       7.45704776      13.59870160       0.20211187      -0.22469233       0.31730604
H        8.68419985       7.83642678      13.06907974      -0.20747107       0.22478771      -0.31121793
H        0.76218309       0.87158022      32.78403309       0.21995866      -0.23803455       0.32764238
H       11.59191491       1.25095923      32.25441123      -0.21966247       0.23176646      -0.34340969
H        5.14883616       7.49517789      14.78695612       0.37108222      -0.28590694       0.02210815
H       15.72970280       7.93172383      14.77170135      -0.37127477       0.25977400       0.00216667
H        2.37928623       2.13947748      36.36794657       0.34669399      -0.25518537       0.00767140
H        1.78547763       2.57602342      36.35269181      -0.34734938       0.25363010      -0.01336022
H       10.77531778       7.33612778       8.78389599       0.35416770      -0.24005647      -0.00515301
H       10.16724617       7.75266213       8.79661487      -0.35136288       0.24262603       0.00989386
H        7.71734481       0.99144254      33.83125625       0.37284803      -0.25525400      -0.01600332
H        7.10927321       1.40797689      33.84397513      -0.36754489       0.24923144       0.00286395
H        4.27109374       7.11951923       1.01219122       0.48931980      -0.10581119       0.98185527
H       14.78437508       7.39688467       1.18260317       0.29346111      -0.01083437       1.07743812
H        8.57641991       2.57681761      38.58673332       0.37173989      -0.11252023      -0.10086464
H        7.91502601       2.85418305      38.75714528      -0.32816225       0.17842969       0.08267974
H        5.99876321       1.54819791      16.86850872       0.24176265      -0.01846798      -0.41747931
H        5.32377852       1.74961672      17.08585599      -0.34394446       0.10917496      -0.18431777
H        4.67235061       6.61991985      34.96187355       0.39260414      -0.11579195      -0.12761261
H        3.99736591       6.82133865      35.17922082      -0.39426792       0.11875952       0.12705338
H       13.54883333       9.54237956      16.36715679       0.34608260      -0.10135392      -0.32692686
H       12.90266598       9.67204562      16.69741151      -0.30856866      -0.02870740       0.01642549
H       13.67875924       9.62186774      44.89471742       0.34034005      -0.04311509      -0.19962047
H        7.44525427       0.07398116      45.22497213      -0.36659050       0.09724093       0.17134064
H        7.76835642       0.75237025      10.79710547       0.08199506       0.38415062      -0.17272133
H        7.62828152       0.09266759      11.09473801      -0.08371718      -0.38749203       0.17452700
H       14.57791388       7.71140257      46.18429561      -0.33950290       0.09653902      -0.97211874
H       14.43783898       7.05169990      46.48192815      -0.40850797      -0.02815512      -1.05525613
H        1.05770285       0.06227477       2.36668307      -0.10552219       0.21411094      -0.05330077
H        6.78079978       9.01530966       2.37424257       0.06480620      -0.45663232      -0.02260746
H        5.75930655       2.16783314      40.08088817      -0.10134621       0.40181899       0.01349315
H        5.89506585       1.44331539      40.08844766       0.06015893      -0.40956339       0.00964858
H       12.32028391       2.43598234       3.24085074      -0.14107619       0.38643709       0.18369043
H        1.42093515       1.83235019       2.91954517       0.17243978      -0.14952998      -0.11244000
H        8.93009377       0.82013652      30.65044489      -0.16318844       0.38011038       0.28500167
H        9.20542025       0.21650437      30.32913932       0.19473922      -0.35947701      -0.09395815
H        4.74223211       5.25418833       7.94799281      -0.11156712       0.14691645       0.38028136
H        4.93740873       4.99800375       7.28490212       0.11163037      -0.14684728      -0.38040632
H        9.45360091       8.92236646      32.58358960      -0.12402309       0.16437089       0.40522337
H        9.64877753       8.66618188      31.92049891       0.11957559      -0.15598524      -0.42916548
H        2.80651730       4.44555004      14.51509155       0.09354651       0.02008469       0.45147598
H        2.65814435       4.42041271      13.79344946      -0.08830326      -0.01347232      -0.43190423