4
Lattice="2.653985369848837 0.0 0.0 1.326992684924419 2.298418751561331 0.0 0.0 0.0 24.562042063818488" Properties=species:S:1:pos:R:3:forces:R:3 energy=2.767889541625678 pbc="T T F"
Pt       1.32699268       0.76613958      10.00000000      -0.01795453       0.01276476      -1.41794813
Pt       2.65398537       1.53227917      12.28102103       0.07352918      -0.03938339       0.42235130
Pt       1.38403638       2.26329596      14.69307498       0.77455878       0.22499417      -3.18464637
H        3.26579889       1.20134989      15.36204206      -0.83013320      -0.19837554       4.18024302
4
Lattice="2.653985369848837 0.0 0.0 1.326992684924419 2.298418751561331 0.0 0.0 0.0 24.562042063818488" Properties=species:S:1:pos:R:3:forces:R:3 energy=1.9924908862767694 pbc="T T F"
Pt       1.32699268       0.76613958      10.00000000      -0.00973960      -0.02358396      -1.38014030
Pt       2.65398537       1.53227917      12.28102103      -0.07880123      -0.01612493       0.24241957
Pt       2.57279751       0.06338473      14.63121272      -0.50408256      -1.18056965      -2.21007490
H        2.87899131       0.71975876      15.86204206       0.59262365       1.22027886       3.34779572
4
Lattice="2.653985369848837 0.0 0.0 1.326992684924419 2.298418751561331 0.0 0.0 0.0 24.562042063818488" Properties=species:S:1:pos:R:3:forces:R:3 energy=3.8980307263127685 pbc="T T F"
Pt       1.32699268       0.76613958      10.00000000       0.00009847      -0.03111755      -1.29528773
Pt       2.65398537       1.53227917      12.28102103       0.00048980       0.10035685       0.77287138
Pt       2.65391989       0.13897385      14.66394468       0.00484807       0.14356244       1.28140604
H        2.67650252       0.94624392      17.36204206      -0.00543634      -0.21280174      -0.75898969
4
Lattice="2.653985369848837 0.0 0.0 1.326992684924419 2.298418751561331 0.0 0.0 0.0 24.562042063818488" Properties=species:S:1:pos:R:3:forces:R:3 energy=2.505826204674136 pbc="T T F"
Pt       1.32699268       0.76613958      10.00000000      -0.03796646      -0.05429013      -1.32461572
Pt       2.65398537       1.53227917      12.28102103       0.18036675       0.41033396      -1.11709988
Pt       0.18901897       0.16539596      14.48204206       0.29022229      -0.49041510       4.24192142
H        1.37928179       0.03909707      16.04143497      -0.43262258       0.13437100      -1.80020559
4
Lattice="2.653985369848837 0.0 0.0 1.326992684924419 2.298418751561331 0.0 0.0 0.0 24.562042063818488" Properties=species:S:1:pos:R:3:forces:R:3 energy=2.1035876292435347 pbc="T T F"
Pt       1.32699268       0.76613958      10.00000000       0.01764754      -0.02619055      -1.35832620
Pt       2.65398537       1.53227917      12.28102103      -0.15088855       0.19677193      -1.17055166
Pt       2.56234173       0.04643463      14.48204206       0.05158919      -0.34822330       3.12059712
H        2.62132329       2.08548269      15.73167539       0.08165156       0.17764190      -0.59171915
4
Lattice="2.653985369848837 0.0 0.0 1.326992684924419 2.298418751561331 0.0 0.0 0.0 24.562042063818488" Properties=species:S:1:pos:R:3:forces:R:3 energy=2.6244717943600477 pbc="T T F"
Pt       1.32699268       0.76613958      10.00000000      -0.00004808       0.00017766      -1.41690886
Pt       2.65398537       1.53227917      12.28102103      -0.02327954      -0.02298464      -1.59273481
Pt       1.32428256       2.29349359      14.48204206      -0.57735181      -0.51522368       0.44897917
H        2.52996925       1.44087869      15.16204206       0.60067940       0.53803062       2.56066442
4
Lattice="2.653985369848837 0.0 0.0 1.326992684924419 2.298418751561331 0.0 0.0 0.0 24.562042063818488" Properties=species:S:1:pos:R:3:forces:R:3 energy=2.2495756960261275 pbc="T T F"
Pt       1.32699268       0.76613958      10.00000000      -0.00680005      -0.03513541      -1.30020285
Pt       2.65398537       1.53227917      12.28102103       0.10046072       0.37531090      -1.03539777
Pt       0.07861612       0.12761554      14.48204206       0.83388054      -0.27809235       3.98139000
H        0.95356624       0.19215307      16.05048369      -0.92754120      -0.06208315      -1.64578927
4
Lattice="2.653985369848837 0.0 0.0 1.326992684924419 2.298418751561331 0.0 0.0 0.0 24.562042063818488" Properties=species:S:1:pos:R:3:forces:R:3 energy=2.4675334575777157 pbc="T T F"
Pt       1.32699268       0.76613958      10.00000000      -0.02673588       0.01981472      -1.42482352
Pt       2.65398537       1.53227917      12.28102103       0.11031910      -0.08071336      -0.29560465
Pt       1.44949975       2.21686407      14.59618624      -2.51083422       1.50206327      -1.55442762
H        2.47887199       1.53346703      15.36204206       2.42725062      -1.44116437       3.27485609
4
Lattice="2.653985369848837 0.0 0.0 1.326992684924419 2.298418751561331 0.0 0.0 0.0 24.562042063818488" Properties=species:S:1:pos:R:3:forces:R:3 energy=2.3681040726651332 pbc="T T F"
Pt       1.32699268       0.76613958      10.00000000       0.01914752       0.02424345      -1.30357742
Pt       2.65398537       1.53227917      12.28102103      -0.14952792      -0.15280968      -0.00790177
Pt       1.28456482       2.21584282      14.57853214       0.36091197       0.31000695       3.17375565
H        2.25881538       1.22692863      16.13616479      -0.23053156      -0.18144071      -1.86227620
4
Lattice="2.653985369848837 0.0 0.0 1.326992684924419 2.298418751561331 0.0 0.0 0.0 24.562042063818488" Properties=species:S:1:pos:R:3:forces:R:3 energy=4.203023970715563 pbc="T T F"
Pt       1.32699268       0.76613958      10.00000000       0.02363410      -0.02047807      -1.37602079
Pt       2.65398537       1.53227917      12.28102103      -0.04548179       0.04265101       1.15112412
Pt       2.50741646       0.11649562      14.73217844       0.02213771      -0.02217114       0.25326961
H        0.08942303       0.01957169      19.36204206      -0.00028976      -0.00000206      -0.02837264
4
Lattice="2.653985369848837 0.0 0.0 1.326992684924419 2.298418751561331 0.0 0.0 0.0 24.562042063818488" Properties=species:S:1:pos:R:3:forces:R:3 energy=4.414056638554953 pbc="T T F"
Pt       1.32699268       0.76613958      10.00000000       0.00953339      -0.05641567      -1.37046182
Pt       2.65398537       1.53227917      12.28102103      -0.02858733       0.25735641      -0.49703825
Pt       2.62306969       0.15324288      14.52018475       0.01877754      -0.20138811       1.89626205
H        3.71430573       1.84625447      19.36204206       0.00027639       0.00044763      -0.02876165
4
Lattice="2.653985369848837 0.0 0.0 1.326992684924419 2.298418751561331 0.0 0.0 0.0 24.562042063818488" Properties=species:S:1:pos:R:3:forces:R:3 energy=4.34905020146563 pbc="T T F"
Pt       1.32699268       0.76613958      10.00000000      -0.03984388      -0.04611479      -1.38194311
Pt       2.65398537       1.53227917      12.28102103       0.10608038       0.17271902       0.06124985
Pt       0.17304050       0.17310840      14.58090303      -0.06626839      -0.12653120       1.33127773
H        1.79402631       1.40786154      20.67344385       0.00003188      -0.00007276      -0.01058446
4
Lattice="2.653985369848837 0.0 0.0 1.326992684924419 2.298418751561331 0.0 0.0 0.0 24.562042063818488" Properties=species:S:1:pos:R:3:forces:R:3 energy=4.5065594331290555 pbc="T T F"
Pt       1.32699268       0.76613958      10.00000000      -0.04384400      -0.00566440      -1.36195076
Pt       2.65398537       1.53227917      12.28102103       0.18788671       0.00719138      -0.88404280
Pt       0.11085547       0.01818539      14.48204206      -0.14394271      -0.00151669       2.25822067
H        1.01104102       1.18081281      20.46203202      -0.00010027      -0.00001003      -0.01222740
4
Lattice="2.653985369848837 0.0 0.0 1.326992684924419 2.298418751561331 0.0 0.0 0.0 24.562042063818488" Properties=species:S:1:pos:R:3:forces:R:3 energy=2.0117452550121158 pbc="T T F"
Pt       1.32699268       0.76613958      10.00000000       0.01729427      -0.03154667      -1.35601461
Pt       2.65398537       1.53227917      12.28102103      -0.11100841       0.42861220      -1.08738053
Pt       2.52882836       0.15803639      14.49164318      -0.15562323      -0.42593437       2.25976515
H        1.72937550       0.15108842      15.86204206       0.24933738       0.02886912       0.18363000
4
Lattice="2.653985369848837 0.0 0.0 1.326992684924419 2.298418751561331 0.0 0.0 0.0 24.562042063818488" Properties=species:S:1:pos:R:3:forces:R:3 energy=4.5108790366112 pbc="T T F"
Pt       1.32699268       0.76613958      10.00000000       0.07753599       0.06357721      -1.37673223
Pt       2.65398537       1.53227917      12.28102103      -0.45314798      -0.30022028      -1.14337659
Pt       3.78405225       2.11922722      14.48204206       0.37553021       0.23699583       2.55103421
H        2.67799463       1.14365856      18.62646794       0.00008176      -0.00035250      -0.03092497
4
Lattice="2.653985369848837 0.0 0.0 1.326992684924419 2.298418751561331 0.0 0.0 0.0 24.562042063818488" Properties=species:S:1:pos:R:3:forces:R:3 energy=3.0203271908331004 pbc="T T F"
Pt       1.32699268       0.76613958      10.00000000      -0.04709850      -0.01211350      -1.25812447
Pt       2.65398537       1.53227917      12.28102103       0.08621732       0.00168562       0.52196431
Pt       0.16725636       0.03216036      14.62321430      -0.56963128       0.53859240       2.83601904
H        2.26940147       0.60010192      16.69813001       0.53051221      -0.52816427      -2.09985900
4
Lattice="2.653985369848837 0.0 0.0 1.326992684924419 2.298418751561331 0.0 0.0 0.0 24.562042063818488" Properties=species:S:1:pos:R:3:forces:R:3 energy=1.780823852995141 pbc="T T F"
Pt       1.32699268       0.76613958      10.00000000       0.01812525      -0.01448971      -1.34196579
Pt       2.65398537       1.53227917      12.28102103      -0.13701873       0.10177687       0.83485168
Pt       2.47636303       0.05958619      14.71144062      -0.25448498      -0.00740838       1.29330325
H        1.42685103       0.18995476      16.04110456       0.37337846      -0.07987878      -0.78618914
4
Lattice="2.653985369848837 0.0 0.0 1.326992684924419 2.298418751561331 0.0 0.0 0.0 24.562042063818488" Properties=species:S:1:pos:R:3:forces:R:3 energy=2.286927405356451 pbc="T T F"
Pt       1.32699268       0.76613958      10.00000000       0.00310949       0.02095346      -1.31008434
Pt       2.65398537       1.53227917      12.28102103      -0.01102566      -0.08267614       1.07028627
Pt       1.28208926       2.16627541      14.74090160      -0.35529718      -0.06422205       2.17338657
H        2.83016477       1.40761113      16.29316116       0.36321336       0.12594447      -1.93358850
4
Lattice="2.653985369848837 0.0 0.0 1.326992684924419 2.298418751561331 0.0 0.0 0.0 24.562042063818488" Properties=species:S:1:pos:R:3:forces:R:3 energy=2.2968848679256695 pbc="T T F"
Pt       1.32699268       0.76613958      10.00000000       0.00593025       0.03017087      -1.29431605
Pt       2.65398537       1.53227917      12.28102103      -0.13707966      -0.23073262      -0.96756816
Pt       3.89928249       2.20439350      14.48204206       0.55941474       1.07756197       4.20835161
H        2.92058514       0.55134261      16.16204206      -0.42826533      -0.87700027      -1.94646740
4
Lattice="2.653985369848837 0.0 0.0 1.326992684924419 2.298418751561331 0.0 0.0 0.0 24.562042063818488" Properties=species:S:1:pos:R:3:forces:R:3 energy=4.374909726043384 pbc="T T F"
Pt       1.32699268       0.76613958      10.00000000       0.04263866       0.06827334      -1.32502842
Pt       2.65398537       1.53227917      12.28102103      -0.25242245      -0.24395426      -1.01193285
Pt       3.87355479       2.12079146      14.48204206       0.17279254       0.15933461       2.61120558
H        2.78709227       1.81094810      17.56150205       0.03699149       0.01634630      -0.27424443
4
Lattice="2.653985369848837 0.0 0.0 1.326992684924419 2.298418751561331 0.0 0.0 0.0 24.562042063818488" Properties=species:S:1:pos:R:3:forces:R:3 energy=4.274670122103103 pbc="T T F"
Pt       1.32699268       0.76613958      10.00000000      -0.04714581      -0.08019066      -1.31096494
Pt       2.65398537       1.53227917      12.28102103       0.10528591       0.33536881      -0.85256165
Pt       0.14212301       0.19775912      14.49882994       0.01443623      -0.25707692       2.58633709
H        1.23077560       0.13140108      17.39031496      -0.07257608       0.00189902      -0.42281049
4
Lattice="2.653985369848837 0.0 0.0 1.326992684924419 2.298418751561331 0.0 0.0 0.0 24.562042063818488" Properties=species:S:1:pos:R:3:forces:R:3 energy=3.8827759551541163 pbc="T T F"
Pt       1.32699268       0.76613958      10.00000000       0.03244784      -0.02758563      -1.28570414
Pt       2.65398537       1.53227917      12.28102103      -0.04071137       0.04994883       0.98731321
Pt       2.53904916       0.10129059      14.70003156       0.07544183      -0.00612771       1.02076864
H        1.05446724       0.84781300      17.25836378      -0.06717805      -0.01623523      -0.72237772
4
Lattice="2.653985369848837 0.0 0.0 1.326992684924419 2.298418751561331 0.0 0.0 0.0 24.562042063818488" Properties=species:S:1:pos:R:3:forces:R:3 energy=4.420577303039877 pbc="T T F"
Pt       1.32699268       0.76613958      10.00000000       0.01266243      -0.04877383      -1.33878839
Pt       2.65398537       1.53227917      12.28102103      -0.03745840       0.22879195      -0.91658086
Pt       2.62128705       0.11865943      14.48204206       0.02412261      -0.17066625       2.38095975
H        2.95647404       1.31895200      17.85220898       0.00067337      -0.00935187      -0.12559043
4
Lattice="2.653985369848837 0.0 0.0 1.326992684924419 2.298418751561331 0.0 0.0 0.0 24.562042063818488" Properties=species:S:1:pos:R:3:forces:R:3 energy=4.322700395739062 pbc="T T F"
Pt       1.32699268       0.76613958      10.00000000      -0.00984835      -0.01044382      -1.36722565
Pt       2.65398537       1.53227917      12.28102103       0.03306902       0.03715939       0.06301337
Pt       0.03058378       0.03199008      14.56901980      -0.02344023      -0.02703824       1.32978439
H        1.05698596       1.41933032      19.36204206       0.00021957       0.00032267      -0.02557219
4
Lattice="2.653985369848837 0.0 0.0 1.326992684924419 2.298418751561331 0.0 0.0 0.0 24.562042063818488" Properties=species:S:1:pos:R:3:forces:R:3 energy=4.525224743382765 pbc="T T F"
Pt       1.32699268       0.76613958      10.00000000       0.05690212      -0.05926856      -1.37330163
Pt       2.65398537       1.53227917      12.28102103      -0.17952575       0.26846406      -1.00593853
Pt       2.47423096       0.16620458      14.48204206       0.12262260      -0.20905718       2.39592361
H        0.78710489       1.08683329      20.14029389       0.00000129      -0.00013807      -0.01668363
4
Lattice="2.723827090108017 0.0 0.0 1.361913545054009 2.358903455549787 0.0 0.0 0.0 24.562042063818488" Properties=species:S:1:pos:R:3:forces:R:3 energy=2.933205720001766 pbc="T T F"
Pt       1.36191355       0.78630115      10.00000000      -0.01723565      -0.03618211      -0.77084661
Pt       2.72382709       1.57260230      12.28102103       0.07029679       0.18797594      -0.74754393
Pt       2.73419884       0.08826304      14.48204206      -0.73726392      -0.54060894       3.57384253
H        3.34027054       1.99766900      16.55305106       0.68420249       0.38881510      -2.05545187
4
Lattice="2.723827090108017 0.0 0.0 1.361913545054009 2.358903455549787 0.0 0.0 0.0 24.562042063818488" Properties=species:S:1:pos:R:3:forces:R:3 energy=4.348622574531888 pbc="T T F"
Pt       1.36191355       0.78630115      10.00000000       0.01709810      -0.00805295      -0.96628672
Pt       2.72382709       1.57260230      12.28102103      -0.06121463      -0.07167542       0.20536071
Pt       4.02029690       2.29384703      14.67903136       1.63054228     -13.84272766      -6.89573240
H        2.51629578       1.03572452      15.16204206      -1.58642578      13.92245579       7.65665865
4
Lattice="2.723827090108017 0.0 0.0 1.361913545054009 2.358903455549787 0.0 0.0 0.0 24.562042063818488" Properties=species:S:1:pos:R:3:forces:R:3 energy=3.5377468022516183 pbc="T T F"
Pt       1.36191355       0.78630115      10.00000000      -0.08195315       0.05015272      -0.78004217
Pt       2.72382709       1.57260230      12.28102103       0.47893280      -0.27497667      -0.94002211
Pt       1.56144553       2.19618067      14.48481788      -0.69476765      -0.12210736       3.17057419
H        0.99034503       1.55510439      16.87452468       0.29778776       0.34693131      -1.45050979
4
Lattice="2.723827090108017 0.0 0.0 1.361913545054009 2.358903455549787 0.0 0.0 0.0 24.562042063818488" Properties=species:S:1:pos:R:3:forces:R:3 energy=1.4588828130099643 pbc="T T F"
Pt       1.36191355       0.78630115      10.00000000       0.00097728       0.00818691      -0.93815368
Pt       2.72382709       1.57260230      12.28102103       0.18725500      -0.07324380       0.70698452
Pt       1.49099676       2.17446057      14.73850136       0.06678133       0.07778127       0.02861792
H        3.07808488       1.83485298      15.86204206      -0.25501361      -0.01272439       0.20255126
4
Lattice="2.723827090108017 0.0 0.0 1.361913545054009 2.358903455549787 0.0 0.0 0.0 24.562042063818488" Properties=species:S:1:pos:R:3:forces:R:3 energy=2.6714510282008774 pbc="T T F"
Pt       1.36191355       0.78630115      10.00000000      -0.03618519       0.05376563      -0.82213753
Pt       2.72382709       1.57260230      12.28102103       0.40249902      -0.19716789      -0.75981581
Pt       1.49619504       2.21122864      14.48204206       0.18359272       0.52163547       3.62781739
H        1.17729864       0.44413841      16.30016040      -0.54990655      -0.37823322      -2.04586434
4
Lattice="2.723827090108017 0.0 0.0 1.361913545054009 2.358903455549787 0.0 0.0 0.0 24.562042063818488" Properties=species:S:1:pos:R:3:forces:R:3 energy=4.001477260150764 pbc="T T F"
Pt       1.36191355       0.78630115      10.00000000      -0.00232171       0.04760578      -0.85520577
Pt       2.72382709       1.57260230      12.28102103       0.00442230      -0.07717398       0.96604502
Pt       1.36905438       2.16535836      14.72941811       0.00757010       0.06474733       0.07924218
H        2.97947145       0.65170980      18.04523704      -0.00967069      -0.03517938      -0.19008167
4
Lattice="2.723827090108017 0.0 0.0 1.361913545054009 2.358903455549787 0.0 0.0 0.0 24.562042063818488" Properties=species:S:1:pos:R:3:forces:R:3 energy=3.5439473247779603 pbc="T T F"
Pt       1.36191355       0.78630115      10.00000000      -0.01238243       0.01562357      -0.96494848
Pt       2.72382709       1.57260230      12.28102103       0.05012726      -0.08081029       0.02685646
Pt       1.41944380       2.20570734      14.67339226       0.22759047       2.14631319      -2.68338609
H        2.78596326       1.97011701      14.96204206      -0.26533529      -2.08112645       3.62147808
4
Lattice="2.723827090108017 0.0 0.0 1.361913545054009 2.358903455549787 0.0 0.0 0.0 24.562042063818488" Properties=species:S:1:pos:R:3:forces:R:3 energy=1.3834810821490606 pbc="T T F"
Pt       1.36191355       0.78630115      10.00000000      -0.02626973      -0.00767603      -0.88485652
Pt       2.72382709       1.57260230      12.28102103       0.19567382       0.00530830       0.40005931
Pt       0.16983187       0.04721440      14.64670250       0.15736797       0.32308793       0.88688952
H        0.61183679       0.46393439      16.12480861      -0.32677233      -0.32071996      -0.40209228
4
Lattice="2.723827090108017 0.0 0.0 1.361913545054009 2.358903455549787 0.0 0.0 0.0 24.562042063818488" Properties=species:S:1:pos:R:3:forces:R:3 energy=2.3700723402607906 pbc="T T F"
Pt       1.36191355       0.78630115      10.00000000      -0.03561235       0.04516143      -0.83412069
Pt       2.72382709       1.57260230      12.28102103       0.31704071      -0.33872846      -0.84633958
Pt       1.44614723       2.15987229      14.48204206      -0.59000677      -0.51761502       3.80473208
H        1.05547059       1.20899376      16.22034805       0.30857843       0.81118232      -2.12427187
4
Lattice="2.723827090108017 0.0 0.0 1.361913545054009 2.358903455549787 0.0 0.0 0.0 24.562042063818488" Properties=species:S:1:pos:R:3:forces:R:3 energy=5.054923084672751 pbc="T T F"
Pt       1.36191355       0.78630115      10.00000000      -0.00120919       0.06650776      -1.00826871
Pt       2.72382709       1.57260230      12.28102103      -0.02866703      -0.00173807       0.10041958
Pt       1.35552586       2.28468252      14.65156092      -5.94558573      15.66804218      -9.12837410
H        1.74169458       1.30547303      15.16204206       5.97546196     -15.73281097      10.03622341
4
Lattice="2.723827090108017 0.0 0.0 1.361913545054009 2.358903455549787 0.0 0.0 0.0 24.562042063818488" Properties=species:S:1:pos:R:3:forces:R:3 energy=1.694262936719511 pbc="T T F"
Pt       1.36191355       0.78630115      10.00000000      -0.02473222      -0.06156738      -0.94546747
Pt       2.72382709       1.57260230      12.28102103       0.23290443       0.31872556      -1.14115489
Pt       0.18134617       0.13773389      14.48204206      -0.15158428      -0.31459585       1.71174729
H        1.55205682       0.10913394      15.56772595      -0.05658793       0.05743768       0.37487483
4
Lattice="2.723827090108017 0.0 0.0 1.361913545054009 2.358903455549787 0.0 0.0 0.0 24.562042063818488" Properties=species:S:1:pos:R:3:forces:R:3 energy=1.4295981232180708 pbc="T T F"
Pt       1.36191355       0.78630115      10.00000000       0.00458556      -0.03244424      -0.87326473
Pt       2.72382709       1.57260230      12.28102103      -0.02203898       0.29490992      -0.77208847
Pt       2.70895905       0.14088877      14.50225061      -0.04653286      -0.11393587       1.60465360
H        2.61358371       0.39312211      16.04365147       0.06398628      -0.14852981       0.04069954
4
Lattice="2.723827090108017 0.0 0.0 1.361913545054009 2.358903455549787 0.0 0.0 0.0 24.562042063818488" Properties=species:S:1:pos:R:3:forces:R:3 energy=3.0884085145653586 pbc="T T F"
Pt       1.36191355       0.78630115      10.00000000      -0.03666728       0.03483022      -0.81384087
Pt       2.72382709       1.57260230      12.28102103       0.15912482      -0.06633910       0.88856381
Pt       1.53913334       2.17369046      14.70944956      -0.70427096      -0.10315704       1.74240851
H        3.39717090       2.01699096      16.92462113       0.58181345       0.13466591      -1.81713140
4
Lattice="2.723827090108017 0.0 0.0 1.361913545054009 2.358903455549787 0.0 0.0 0.0 24.562042063818488" Properties=species:S:1:pos:R:3:forces:R:3 energy=3.988408311622166 pbc="T T F"
Pt       1.36191355       0.78630115      10.00000000       0.02612678       0.03391311      -0.84946656
Pt       2.72382709       1.57260230      12.28102103      -0.05436727      -0.06208032       0.89969903
Pt       4.00066741       2.22339334      14.71367779       0.06210063       0.00078316       0.16858108
H        1.99019629       1.62589447      17.96663371      -0.03386015       0.02738405      -0.21881349
4
Lattice="2.723827090108017 0.0 0.0 1.361913545054009 2.358903455549787 0.0 0.0 0.0 24.562042063818488" Properties=species:S:1:pos:R:3:forces:R:3 energy=4.099122938697306 pbc="T T F"
Pt       1.36191355       0.78630115      10.00000000      -0.01244620       0.00072582      -0.85718763
Pt       2.72382709       1.57260230      12.28102103       0.03217170      -0.00265775       0.35997814
Pt       1.39665007       2.35716544      14.61194995      -0.02000396       0.00300742       0.53061014
H        2.68101523       0.41616296      19.02815141       0.00027871      -0.00107524      -0.03340069
4
Lattice="2.723827090108017 0.0 0.0 1.361913545054009 2.358903455549787 0.0 0.0 0.0 24.562042063818488" Properties=species:S:1:pos:R:3:forces:R:3 energy=1.5153677323805965 pbc="T T F"
Pt       1.36191355       0.78630115      10.00000000      -0.01249428      -0.00404897      -0.97121835
Pt       2.72382709       1.57260230      12.28102103      -0.23693618      -0.14483231      -0.04244917
Pt       3.92358488       2.29557983      14.60033384      -0.10710934      -0.05174705       0.47319949
H        0.87031999       0.78000322      15.59997853       0.35653979       0.20062834       0.54046804
4
Lattice="2.723827090108017 0.0 0.0 1.361913545054009 2.358903455549787 0.0 0.0 0.0 24.562042063818488" Properties=species:S:1:pos:R:3:forces:R:3 energy=2.2157944607142923 pbc="T T F"
Pt       1.36191355       0.78630115      10.00000000       0.02966745      -0.01590433      -0.98557180
Pt       2.72382709       1.57260230      12.28102103      -0.06232380       0.17458846       0.24389769
Pt       2.58153713       0.18661974      14.68558724       1.22386348       0.85568327      -1.79601085
H        1.42727286       1.10509270      15.18402992      -1.19120705      -1.01436734       2.53768516
4
Lattice="2.723827090108017 0.0 0.0 1.361913545054009 2.358903455549787 0.0 0.0 0.0 24.562042063818488" Properties=species:S:1:pos:R:3:forces:R:3 energy=2.076596995369087 pbc="T T F"
Pt       1.36191355       0.78630115      10.00000000       0.05954161       0.05272459      -0.97146904
Pt       2.72382709       1.57260230      12.28102103      -0.60609621      -0.37069345      -1.45505738
Pt       3.89026195       2.18587391      14.48204206      -0.39632016       1.54482770      -0.05377489
H        1.89165078       1.20259928      15.36204206       0.94287449      -1.22685850       2.48030114
4
Lattice="2.723827090108017 0.0 0.0 1.361913545054009 2.358903455549787 0.0 0.0 0.0 24.562042063818488" Properties=species:S:1:pos:R:3:forces:R:3 energy=2.742679620866525 pbc="T T F"
Pt       1.36191355       0.78630115      10.00000000      -0.04455157      -0.05303312      -0.82133180
Pt       2.72382709       1.57260230      12.28102103       0.11399938       0.22528805       0.34664568
Pt       0.18058487       0.15063995      14.61875720      -0.24171534      -0.21971107       2.46445537
H        1.60384439       0.09658837      16.53345270       0.17226753       0.04745614      -1.98976922
4
Lattice="2.723827090108017 0.0 0.0 1.361913545054009 2.358903455549787 0.0 0.0 0.0 24.562042063818488" Properties=species:S:1:pos:R:3:forces:R:3 energy=1.5462031990746397 pbc="T T F"
Pt       1.36191355       0.78630115      10.00000000      -0.01132905      -0.03816083      -0.89185172
Pt       2.72382709       1.57260230      12.28102103       0.13052720       0.32942390      -0.98313874
Pt       2.79397368       0.12632060      14.48204206      -0.42875412      -0.34580210       1.79867625
H        2.25622077       0.10998883      15.96204206       0.30955595       0.05453902       0.07631420
4
Lattice="2.723827090108017 0.0 0.0 1.361913545054009 2.358903455549787 0.0 0.0 0.0 24.562042063818488" Properties=species:S:1:pos:R:3:forces:R:3 energy=3.9692778227190644 pbc="T T F"
Pt       1.36191355       0.78630115      10.00000000      -0.03958265      -0.01974839      -0.83031672
Pt       2.72382709       1.57260230      12.28102103       0.08317956       0.04085483       0.47952878
Pt       0.12055972       0.06443251      14.63409267      -0.04025628      -0.00053659       0.63347846
H        2.79673650       1.46010534      17.69877323      -0.00334063      -0.02057011      -0.28269050
4
Lattice="2.863510530626377 0.0 0.0 1.431755265313188 2.479872863526699 0.0 0.0 0.0 24.562042063818488" Properties=species:S:1:pos:R:3:forces:R:3 energy=2.357919531074927 pbc="T T F"
Pt       1.43175527       0.82662429      10.00000000      -0.01562228      -0.01402588      -0.09894660
Pt       2.86351053       1.65324858      12.28102103       0.02562824       0.12241460       0.18827470
Pt       2.93208158       0.15486521      14.74386917      -0.13126512       3.64947844      -1.43602884
H        1.44326268       1.20876397      14.96204206       0.12125941      -3.75786710       1.34670079
4
Lattice="2.863510530626377 0.0 0.0 1.431755265313188 2.479872863526699 0.0 0.0 0.0 24.562042063818488" Properties=species:S:1:pos:R:3:forces:R:3 energy=2.5789342877897212 pbc="T T F"
Pt       1.43175527       0.82662429      10.00000000       0.01703767      -0.02503149      -0.10771972
Pt       2.86351053       1.65324858      12.28102103      -0.05039363       0.06895879       0.14322023
Pt       2.69530017       0.14023705      14.72637849      -4.94389343       2.37690043      -2.87590599
H        2.46716864       2.11772515      15.16204206       4.97724915      -2.42082810       2.84040546
4
Lattice="2.863510530626377 0.0 0.0 1.431755265313188 2.479872863526699 0.0 0.0 0.0 24.562042063818488" Properties=species:S:1:pos:R:3:forces:R:3 energy=1.5489983526686188 pbc="T T F"
Pt       1.43175527       0.82662429      10.00000000      -0.01050373       0.07373487      -0.15030850
Pt       2.86351053       1.65324858      12.28102103       0.04359408      -0.19069463       0.12635817
Pt       1.44946113       2.28461462      14.62226043       0.00859700       0.52630848      -0.27529293
H        1.31561431       1.10265995      15.69132270      -0.04168735      -0.40934846       0.29924327
4
Lattice="2.863510530626377 0.0 0.0 1.431755265313188 2.479872863526699 0.0 0.0 0.0 24.562042063818488" Properties=species:S:1:pos:R:3:forces:R:3 energy=2.8398352223475882 pbc="T T F"
Pt       1.43175527       0.82662429      10.00000000      -0.05008484      -0.00265338      -0.11819053