144
Lattice="11.174675241468789 0.0 0.0 5.587337620734394 9.677552638152974 0.0 0.0 0.0 46.84306309572773" Properties=species:S:1:pos:R:3:forces:R:3 energy=39.35881563942817 pbc="T T T"
Pt      11.14237957       0.00733214      19.78904402       0.60313249      -0.31299403       0.59015667
Pt       8.38231044       9.63659084      19.74910537       0.29240978       0.03153972       0.62778068
Pt       5.62137800       0.04887917      19.70674333      -0.28244418      -0.74986309      -0.09140992
Pt       8.43219401       0.05186842      19.59592040      -0.55059588      -0.44821224       0.10746312
Pt       1.44029443       2.30319196      19.68001099       0.01140079       0.77301306       1.11621034
Pt       4.23915683       2.39038264      19.85873979      -0.37888473       0.22308025       0.10200956
Pt       7.11912569       2.34356718      19.73760716      -0.70389074       0.82750809       0.42240581
Pt       9.83831107       2.36187801      19.64118216       0.01302958       0.83291304       0.25431401
Pt      13.98914915       4.91767255      19.82836370       0.07155355      -0.57432330      -0.36834475
Pt       5.62881537       4.73795527      19.89096791      -0.11474115       0.23277742      -1.34119141
Pt       8.45686702       4.84311832      19.75632175      -0.07297074      -0.58431643      -0.47115830
Pt      11.24341789       4.85182616      19.69435840       0.02864749      -0.14277594      -0.26364222
Pt      15.34555249       7.31834958      19.74435622       0.40293843      -0.14021616      -0.38763061
Pt       6.94048379       7.24043715      19.97272548      -0.02264628      -0.54227757      -1.89848626
Pt       9.81530555       7.20174398      19.83588932       0.19931142       0.77347505       0.09950735
Pt      12.64590829       7.32332190      19.75622355      -0.26787657      -0.19063240      -0.11152881
Pt       1.29014698       0.77739886      22.32815403       0.88931793       0.37013912      -0.51131690
Pt       4.17187431       0.80772083      22.25248992      -0.18249537      -0.11187205      -0.11770152
Pt       7.07036624       0.82874260      22.14196293      -0.49027392      -0.60064495       0.39284790
Pt       9.78321754       0.79209578      22.15760299      -0.39699739       0.18184565       0.31092611
Pt       2.69203546       3.25637189      22.23821763       0.44270468      -0.51026553      -0.21153547
Pt       5.60578125       3.19456288      22.22491733      -0.22495355       0.03238408       0.51869154
Pt       8.36620436       3.24869816      22.18580007       0.28243467      -0.43010265       0.21107575
Pt      11.10718700       3.27510584      22.09670288       0.13932192      -0.31363887       0.12118741
Pt       4.16678738       5.58679744      22.26650518       0.21890092       0.00197461       0.03735042
Pt       7.02207811       5.59104152      22.23756915      -0.70524132       0.19724065       0.27635068
Pt       9.70430990       5.68463633      22.18371978       0.66102809      -0.32845563       0.40501332
Pt      12.46571647       5.68389259      22.22172284       0.21461102      -0.08600392       0.16536309
Pt       5.53668078       8.06656447      22.23427581       0.18319702      -0.49107432       0.09848072
Pt       8.34834748       8.04670262      22.17564725       0.14178041       0.50853980       0.72439861
Pt      11.15918358       8.09705588      22.29689587       0.18957517       0.14629012      -0.13482043
Pt      14.00923655       7.95387717      22.20601486      -0.60285610       0.78390163       0.40594149
Pt      11.17381263       1.56003512      24.61721430      -0.03820840      -0.09329712      -0.20768550
Pt       2.77411379       1.57051004      24.70641364      -0.16058880       0.47893280      -0.74627149
Pt       5.52074094       1.57431763      24.57590578       0.65713596       0.35522160       0.18800037
Pt       8.32167996       1.54189611      24.58005980       0.40334699       0.56440169      -0.28383180
Pt      12.57569949       4.02067454      24.51440249       0.04758727      -0.12474737       0.49368966
Pt       4.19120514       3.96888628      24.72076860      -0.01030164       0.39821893      -0.67234379
Pt       6.99254333       3.93357190      24.73731428      -0.10973547       0.20840259      -0.41736645
Pt       9.87433126       3.89090954      24.56774760      -1.01849532       0.57201958      -0.10531779
Pt      13.96127144       6.39038093      24.66748662       0.02985051       0.21196434      -0.49406013
Pt       5.60356095       6.35448493      24.62692613       0.09818478       0.04132046       0.10900630
Pt       8.34908384       6.38640725      24.63383189      -0.17868885       0.17660883      -0.22876187
Pt      11.04641534       6.41433015      24.68131672       0.77579623       0.40684009      -0.78919786
Pt      15.41377413       8.79268428      24.60238812      -0.49929157       0.16542763      -0.24288674
Pt       6.95468520       8.79641143      24.61309406       0.29043853      -0.12386085       0.24078074
Pt       9.74333013       8.94367870      24.69358824       0.01803552      -0.92074454      -0.57487941
Pt      12.61271616       8.83771692      24.65926692      -0.43663403      -0.03236248      -0.98124593
Pt      16.75483760       9.67124069      26.99549611       0.11971597       0.23268023       1.01823926
Pt       2.70678668       0.06453794      27.02642251       0.98992133      -0.11361294       1.01813483
Pt       5.67432487       0.13270240      27.05215898      -0.81079203      -0.18052770      -1.20126700
Pt       8.35018025       0.14571256      26.94172029       0.63103002      -0.34800577      -0.16262434
Pt      12.53557844       2.44357145      27.04392125       0.36239678       0.27455810       0.87620503
Pt       4.14849952       2.51001829      27.09377371       0.26624882      -0.35110062      -0.59365183
Pt       6.96965233       2.53205837      27.28295780       0.23472656      -0.00876901      -0.96951473
Pt       9.87818691       2.45183629      27.07627021      -0.99053353       0.01257090      -0.97275281
Pt      13.99610630       4.92558223      27.07064347      -0.31396413      -0.02723287      -0.57477993
Pt       5.62250924       4.89952282      27.22929451      -0.03791657      -0.02919282      -1.18609238
Pt       8.43686600       4.89240348      26.97070815      -0.09762814      -0.39181688       1.32869947
Pt      11.18066617       4.87216085      26.98740542       0.46275207       0.03430520      -0.64240301
Pt      15.41210672       7.34484937      27.05019942      -0.18933065      -0.51328760      -0.57897675
Pt       7.00832341       7.29620106      27.32456678      -0.16275187      -0.07535801       0.22511861
Pt       9.70711823       7.30924280      26.99398546       0.50494617       0.25848588       0.06251767
Pt      12.58883096       7.39951380      26.97262653      -0.53506821      -0.73446703       0.38081306
H        0.14512181       0.07882837      28.59506562      -0.20471948      -0.12019549      -0.81784713
H        3.06626450       0.19735673      28.59215787      -0.39722699      -0.17852122      -0.83884436
H        5.60582298       0.07187791      28.54248615       0.01044716       0.02401128       1.25319409
H        8.63858659       0.05238358      28.44065767      -0.08535292       0.04838354       0.60661685
H       12.35141564       2.39791896      28.65031515       0.28446406       0.11687671      -0.97176009
H        4.00063227       2.47937739      28.60229413       0.03007394       0.04403220       0.76115173
H        7.10222929       2.42017787      28.79310314      -0.04146444       0.02065753       0.52098423
H        9.95501965       2.40255494      28.58356292      -0.04820587      -0.01313062       0.78628069
H       13.77910663       5.14558962      28.56595103      -0.00882017      -0.05375714       0.52735335
H        5.21041269       5.13070993      28.65497664      -0.00045226      -0.01183787       0.99255669
H        8.72233033       4.88756471      28.57962961      -0.37566650      -0.00903486      -1.03481662
H       11.17071743       4.71624476      28.49772534       0.05918448       0.02229224       0.71268106
H       15.20283233       7.36284060      28.55743489       0.03858378       0.04023880       0.60217065
H        6.99288942       7.32512554      28.92503518       0.02120800      -0.02341272      -0.97502691
H        9.91938128       7.23861019      28.53010123      -0.19685011       0.06328462       0.09512517
H       12.06780395       7.27547739      28.45411880       0.44158494       0.08983409      -0.11399475
H       11.11531182       0.16514576      18.28155998       0.06570584      -0.11425649      -0.73823553
H        2.79626780       0.11543738      18.22293932       0.00623210      -0.11999108      -0.28922522
H       11.08186734       9.58302346      18.13660470       0.09267954       0.11520394       0.51954800
H        8.14052755       0.19143738      18.06801567       0.22586681      -0.17860684       0.23135276
H        1.53224015       2.12298076      18.17742676      -0.02426556       0.09512542      -0.61182827
H        4.25340739       2.43262763      18.30542115      -0.04821487      -0.00479511      -0.00804832
H        6.95152127       2.34847444      18.21398949       0.02304274       0.04775233      -0.37500855
H        9.55838837       2.38969445      18.12159775       0.23966438      -0.00194273      -0.11620513
H       14.07023524       5.03355956      18.24594445      -0.03042412      -0.20509331       0.57971567
H        5.55505430       4.65376538      18.23839868       0.09399517       0.12855543       1.36968338
H        8.49406927       4.60849835      18.18853195      -0.05130405       0.27119818       0.51183677
H       11.37229094       4.98878352      18.12701765      -0.10130276      -0.14890751       0.45060155
H       15.31722185       7.49035836      18.16932835       0.14631481      -0.17676875       0.54743290
H        6.86379167       6.95168223      18.33018137       0.07206674       0.40181717       1.34126723
H        9.98657839       7.32806103      18.30641489      -0.09408259      -0.05571915      -0.23945715
H       13.09978016       7.11536924      18.26743305      -0.43179908       0.20176528       0.24090262
H        4.17115961       0.90629522      11.27814745       0.12857111       0.03441859       0.03931063
H        3.47714961       0.73248318      11.07082133      -0.13473997      -0.03700538      -0.03689739
H        2.77888504       0.38488019      31.46734554      -0.25549722       0.14983208      -0.24114430
H        2.27238909       0.65716561      30.97107219       0.25036350      -0.12494122       0.25756723
H        6.89312082       6.96615521      14.92983649       2.19686055       0.59495205       0.34207579
H        6.22614673       6.78616466      14.83230481      -2.20543003      -0.58952034      -0.30877820
H       12.46474296       2.81860687      39.78605243       0.29184878      -0.58897346       0.56356710
H       12.22565641       3.31519699      39.31218209      -0.28330988       0.59488773      -0.56666809
H        8.54142318       8.18401444       8.24554774      -0.45008758       0.11519674      -0.31194735
H        9.12957176       8.03098549       8.65749935       0.44573060      -0.10983033       0.31927088
H        5.87735454       2.17652127      32.71378156      -0.87789911      -0.54628903       0.23693900
H        6.47218658       2.55195983      32.54648031       0.86738330       0.55013537      -0.25620478
H        5.46712496       6.01529165       7.21755966       0.19624589      -0.65793407      -0.20252967
H        5.67794842       5.31067278       6.99383380      -0.19686270       0.66625643       0.21165529
H        7.89601114       2.32680999      37.40458006      -0.48309901       0.58123058      -0.24679096
H        7.42833850       2.89037348      37.16346954       0.47885078      -0.58172911       0.24915175
H        3.45592625       2.46399083      14.85879766       0.01087371       0.02336259       0.02867449
H        3.61980001       3.00657320      15.35068978      -0.00759607      -0.02392309      -0.00366974
H        3.31390751       4.60476036      34.43681586       1.25897312       1.21264756      -0.75167930
H        3.84152410       5.12685724      34.11357406      -1.23376656      -1.26879346       0.79786402
H       11.50611965       8.79417091      15.14942520       0.54899460       0.42057210       0.61588752
H       11.06911866       8.46190195      14.67296951      -0.54492301      -0.41206738      -0.58384413
H        8.10533223       0.77132106      46.38823861      -0.00918090      -0.02108665      -0.18856601
H        8.14119596       0.85282747       0.28284660       0.01028339       0.02064776       0.18890591
H        6.64779997       1.63026165       9.87780757      -0.18534827       0.00184245      -0.62073606
H        6.85659410       1.62492552      10.57930377       0.19354983      -0.00587394       0.62143493
H       13.38846947       8.77006432      41.53672027       0.78903562       0.18111110      -0.25193444
H       14.10819353       8.93602041      41.31059920      -0.79072100      -0.18324716       0.24652356
H        6.02987504       9.55936052       3.56653789       1.03254020      -0.07759976      -0.92904097
H        6.61513561       9.51230381       3.03740894      -1.03075099       0.08554755       0.93272817
H        5.45906087       3.62129947      39.15059687      -1.13395381       0.49800396      -0.09485469
H        4.74170244       3.93580973      39.08842373       1.12801063      -0.49815899       0.10039078
H       12.40746395       3.18349832       4.65511384       0.07556576      -0.04303950      -0.00578884
H        1.89072824       2.82516380       4.61273952      -0.07804199       0.03464099       0.00314163
H       13.84113113       7.17745614      32.38808975      -0.17611364       0.24874474      -0.01272311
H       14.29025953       6.59057895      32.33604324       0.15532318      -0.20035760      -0.06565826
H       14.68526338       7.89144842       9.98917739       0.27795300       0.32485095      -0.39480475
H       15.04579420       8.32608050       9.47320139      -0.27781183      -0.33354360       0.39717788
H        8.82162539       7.39655741      31.46056116       0.35604715      -0.10938554      -0.04871855
H        9.54824813       7.19012251      31.38473401      -0.34712955       0.09145620       0.03245504
H        3.18016858       5.38724481      12.30937306       0.27120563      -1.16044688      -0.62213296
H        3.33776179       4.70577917      11.94322322      -0.26565823       1.15972245       0.62597317
H        5.52457798       4.86040778      42.17384721      -0.31768167       0.07013173      -0.20318814
H        6.14271033       4.71729972      42.55158462       0.31623903      -0.07304633       0.19368301
H       14.85624492       9.24052863      15.47459480       0.60556042       0.63631237      -0.57139969
H        9.71599319       0.03542709      15.04254514      -0.60650146      -0.64681739       0.59625918
H       11.77852806       7.73806274      37.67791323       0.65882003      -1.45649278       0.52110118
H       12.09184458       7.04357261      37.92534983      -0.65430182       1.45601177      -0.51619631
144
Lattice="11.174675241468789 0.0 0.0 5.587337620734394 9.677552638152974 0.0 0.0 0.0 46.84306309572773" Properties=species:S:1:pos:R:3:forces:R:3 energy=38.93201844775754 pbc="T T T"
Pt       5.66025678       9.62753925      19.99534566      -0.63844198       0.13260928      -0.41584563
Pt       8.38533543       9.63307980      19.90978521       0.05386256       0.21284571       1.11805201
Pt       5.61693826       0.08167574      19.90559147       0.00927088      -0.36412224      -0.74831092
Pt      14.02240446       9.67512407      19.80359745      -0.13714574       0.32640466       1.39138699
Pt       1.43985252       2.39703021      19.90449975      -0.43073207      -0.24592835      -0.52789044
Pt       4.19433891       2.47711833      20.05141173       0.26197332      -0.40890366      -0.73690653
Pt       7.03142252       2.46241137      19.87433272       0.11368031       0.03345545       0.03277694
Pt       9.87017353       2.48100567      19.87571991      -0.74902028      -0.42812958      -0.66076994
Pt       2.76435739       4.74907760      19.81811416       0.13582727       0.80740744       0.14265099
Pt       5.52994737       4.88847806      19.86809663       0.10297372      -0.46782023      -0.12655923
Pt       8.42620783       4.83140964      19.91965864      -0.10971695       0.64413828      -0.75120598
Pt      11.23779261       4.84938756      19.82135302      -0.30535582       0.19057223       0.62192035
Pt      15.28023110       7.24265938      19.83049614       0.02063105      -0.10090423       0.32557729
Pt       6.93032385       7.17957993      19.94934774       0.12028007       0.40623921      -1.74458897
Pt       9.81905846       7.33102676      19.96233445      -0.48584265      -0.69131106      -1.12007904
Pt      12.53576207       7.30805147      19.92230244       0.45575431      -0.19290963      -0.60530406
Pt       1.41617315       0.79043527      22.25854543      -0.09153257      -0.27526748       0.24980892
Pt       4.16613893       0.86071656      22.25490053       0.16748862      -0.54974484       0.44062027
Pt       6.93617398       0.75575795      22.20874864       0.28679991       0.89328384       0.07978751
Pt       9.81400337       0.77345198      22.24606294      -0.41297552       0.06757862      -0.10240139
Pt       2.67101962       3.16580343      22.31232488       0.87633640       0.76975417      -0.53771311
Pt       5.53047416       3.26441622      22.28441390       0.63430816       0.00358052       0.28409407
Pt       8.37793768       3.19255875      22.23722229      -0.32922772       0.06665020      -0.00967326
Pt      11.15577955       3.19688869      22.26294366      -0.09230878      -0.02860301      -0.26700214
Pt       4.09457221       5.68787493      22.28238248       0.39134276      -0.45603403      -0.86488396
Pt       6.93280144       5.67097906      22.29021506       0.35871804      -0.56436568      -0.57610381
Pt       9.82957035       5.60831523      22.28888317      -0.76137829       0.14266950      -0.74094158
Pt      12.56328652       5.60107905      22.27056367      -0.08650683       0.01805789      -0.56769502
Pt       5.55283470       8.04792572      22.34350453       0.00380806       0.02864338      -0.92312485
Pt       8.40623846       8.03650857      22.27665559      -0.18374391      -0.07622010      -0.59977210
Pt      11.19298893       8.04187465      22.26602173      -0.57725614       0.10921584      -0.22389683
Pt      13.86323099       8.11549764      22.31484546       1.06404722      -0.32954988      -0.92257977
Pt      11.18055498       1.58237170      24.56743559       0.09946133      -0.05072967       0.14338760
Pt       2.88836536       1.72817614      24.61714914      -0.38802475      -1.15619099       0.02963017
Pt       5.68363829       1.57206625      24.59324829      -0.24327858       0.24007498      -0.11772902
Pt       8.42028520       1.49836658      24.49868646      -0.32129228       0.54080462       0.39231515
Pt      12.53868654       4.00586573      24.58077574       0.15822981       0.15415899      -0.04873526
Pt       4.20238485       4.01886591      24.57291408       0.33269846       0.15869389       0.25783333
Pt       7.01657898       4.09435209      24.59578427      -0.21371371      -0.91432422       0.09052213
Pt       9.73711518       3.98188170      24.49770674      -0.06560350      -0.03188682       0.71555376
Pt      13.97148822       6.43444726      24.49299665      -0.46974701      -0.16310489       1.33739901
Pt       5.55811569       6.37271927      24.53820294       0.06937686       0.49424887       0.98874635
Pt       8.30220373       6.51087056      24.58129933       0.43411100      -0.51848590       0.33590102
Pt      11.11635095       6.36655654      24.52833280       0.20652413       0.55767620       0.84415519
Pt      15.35464631       8.77333651      24.58764500       0.21262819       0.48297277       0.43010548
Pt       7.01848100       8.89286005      24.50536804      -0.26290098       0.26053300       0.88809896
Pt       9.78515541       8.83725012      24.50381754       0.00005348       0.48891407       0.59202021
Pt      12.51049671       8.76639011      24.56283286       0.23653148       0.59899640       0.81649065
Pt      11.18817190       0.14273130      26.94003238      -0.14458163      -0.78951412       0.92235994
Pt       2.81196818       0.02063952      26.84733986      -0.36470562      -0.14090084       1.58970809
Pt       5.54617185       0.01759755      26.99982296       0.57584280       0.01682530      -0.11652935
Pt       8.42474067       0.07147411      26.92352783      -0.33416271      -0.58865875      -0.24216066
Pt       1.44847736       2.44785760      26.92412370       0.34262910       0.33815202       1.30936575
Pt       4.27461393       2.40940868      27.00564306      -0.19825007       0.31222245      -1.19431114
Pt       7.01558548       2.45059438      27.03911153      -0.04902066      -0.02797798      -1.07360590
Pt       9.75389680       2.45812167      26.97951200       0.09415741       0.01627226      -0.64545417
Pt       2.80495061       4.85094834      26.87423220      -0.09652796       0.15481564       0.40727693
Pt       5.60137058       4.87551355      27.06711864       0.18920621      -0.59291106       0.59400743
Pt       8.39655959       4.87674794      26.95789528      -0.01161650      -0.05424514       1.23718023
Pt      11.19334753       4.77765334      26.82744260      -0.36188436       1.02714682       0.72561836
Pt       4.26419723       7.18816235      26.96321949      -0.77123100       0.74512661      -0.21206795
Pt       6.95489341       7.25399962      27.02636355       0.11587886       0.49677187       0.06212326
Pt       9.72453728       7.33365168      26.92918471       0.36639330      -0.60818833       0.36984345
Pt      12.55060983       7.38650522      27.04351507       0.49702463      -0.67849284      -0.02111904
H       11.04031662       0.30326068      28.53894831       0.21150771      -0.19775718      -0.85273165
H        8.33742703       9.54647674      28.49189237       0.05994553       0.24997938      -1.26929414
H        5.66010622       0.11947285      28.54313692      -0.13054211      -0.12345178       0.06052326
H        8.32857625       0.02837198      28.45817219       0.11110920       0.02618463       0.35468218
H        1.72489423       2.73493787      28.51216536      -0.33312425      -0.39455175      -1.02636778
H        4.56099371       2.56035175      28.46259249       0.01538960      -0.00939687       1.31221116
H        7.12023427       2.17676249      28.51940570       0.01491574       0.07656155       0.85261029
H        9.91193912       2.63573425      28.48356903      -0.06375796      -0.03191536       0.55771786
H        2.85274725       4.84444919      28.43778916      -0.05747547       0.05072813      -0.11843762
H        5.59568895       4.66946040      28.65258637       0.01420535       0.28728145      -0.74752027
H        8.34750390       4.86812845      28.60345384       0.09488554       0.00232453      -1.28410113
H       11.01013895       5.07493688      28.36514630       0.17608176      -0.21090452      -0.20097210
H       15.30200805       7.23117095      28.50066309       0.10944236      -0.01889221       0.20287368
H        7.00990623       7.47977259      28.57623587      -0.11382017      -0.16846640      -0.26957813
H        9.67448299       7.20815818      28.49551369       0.07207060       0.14403115      -0.28606713
H       12.80163338       7.41741317      28.59833407      -0.24148189      -0.04581655      -0.38114807
H       10.95163951       0.03437546      18.47447666       0.23936458      -0.08821739      -0.06926733
H        2.96147623       0.12544037      18.44025877       0.01984275       0.02023381      -1.45570958
H       11.34530865       9.64797324      18.33142202      -0.14294897       0.12868115       0.40828300
H       14.18936354       9.65990484      18.31932817      -0.00771794       0.00130972      -1.19922531
H       12.30097236       2.26974733      18.37377853       0.25736797       0.07001912       0.09778343
H        4.60761336       2.35199169      18.55928043      -0.21888857       0.03618442      -0.26147091
H        7.12323751       2.79085612      18.35515256      -0.03769469      -0.19598082      -0.02538528
H        9.70357653       2.56614121      18.29975079       0.17682815      -0.08075116       0.47989258
H        2.87315711       4.78935757      18.27401856      -0.10821954      -0.11169490      -0.07133424
H        5.38961091       4.69728026      18.31413264       0.13937849       0.22310956       0.27791494
H        8.43851200       5.10698507      18.33669995      -0.01616890      -0.26931819       0.75530660
H       11.26694570       4.90105172      18.30105351      -0.00042757       0.00748500      -0.58100301
H       15.02978921       7.00817288      18.32155100       0.19053908       0.17403233      -0.09433944
H        6.77369310       7.18073195      18.27474963       0.21079525       0.02494819       1.56672084
H        9.65009672       7.29414262      18.35955201       0.19291966       0.07027108       0.77637655
H       12.62333408       7.37123327      18.35060534      -0.11945783      -0.09414661       0.33554006
H        9.20788498       9.28760084      12.83562720      -0.28031763      -0.16205947       0.00169539
H        9.84763194       9.65957536      12.84123011       0.29373649       0.17246807       0.00924029
H        7.23870520       9.33940696      33.18335993       0.15318711       0.52379417      -0.79623342
H        1.78424739       0.08392430      32.54516457      -0.17201351      -0.52333701       0.78041780
H        4.05396056       6.20838455      15.44530284      -0.48760307      -0.61616802       1.12001765
H        4.31332549       6.53895343      14.86441060       0.48797819       0.63447505      -1.07394803
H        2.50360741       3.42889120      38.21291254       1.25046718      -0.42257217      -1.15027952
H       13.16809372       3.60071737      38.67125154      -1.29898953       0.43661013       1.13167191
H        9.26739029       7.16762075       7.56731331       0.25922891       0.98510152       0.49800447
H        9.44677737       7.84632078       7.91082317      -0.26072866      -0.98542422      -0.49834281
H        6.34868656       1.35247049      33.67739376       0.93075770      -0.29556686       0.43283960
H        7.02856805       1.14014365      33.99574444      -0.93042397       0.29139447      -0.43529293
H        5.29848202       6.05616492       5.00794726       0.00252765       0.00411145      -0.00511752
H        5.16633918       5.83410222       5.70998578      -0.00367796      -0.00202834       0.00909039
H        7.51870752       2.58838655      36.98688395       0.04563657      -0.00657431      -0.00918527
H        8.26328840       2.54890112      36.90804075      -0.05679670       0.00212553       0.00588783
H        5.05290180       3.31032589      15.08755678      -0.51078540      -0.45486033      -1.04371035
H        4.73322750       3.02784888      14.42580177       0.51160794       0.44136074       1.06936479
H        4.19961506       5.18251275      34.23738328      -0.48281774       0.54572827       0.06441642
H        3.69111650       5.75518141      34.30775918       0.48415574      -0.54153067      -0.07047574
H       11.91663012       8.41991466      15.49653320      -0.14451504       0.12742902      -0.33031249
H       12.20559995       8.16988559      16.13003072       0.14365681      -0.12087169       0.29255736
H        8.33034721       0.56663852      45.37690695       0.56298959      -0.23745733       0.18118180
H        7.68357707       0.83755586      45.16680253      -0.56300402       0.23488314      -0.18374905
H        7.36977530       1.93810870      10.46001142      -0.36685428      -0.11241764       0.18328084
H        6.71245418       1.73879153      10.78478327       0.35975495       0.10933283      -0.17695053
H       14.01143029       6.93061552      42.03159628       0.07211637      -0.00980902      -0.06096266
H       13.41871926       7.01719084      42.47593055      -0.07878864       0.01436604       0.05184450
H        7.13437408       9.00623231       2.49949885       0.98469865      -0.04485264       0.33212203
H        6.44910715       9.04131227       2.27183777      -0.98385042       0.05212938      -0.32341114
H        5.10349285       2.94602165      39.19672301      -0.17284860       0.02231486       0.26692450
H        4.63457576       3.01262548      39.78705649       0.22874387      -0.03420956      -0.25675502
H        2.58612103       2.62937840       4.09456407       0.53078216       0.36960948       0.00171313
H        1.98577399       2.21062638       4.09278519      -0.53150183      -0.37754467      -0.00668975
H       14.67080124       8.40469312      31.78303313      -0.22848032      -0.11297505       0.03511536
H       15.32511348       8.72928194      31.64735767       0.23301293       0.11292183      -0.06028569
H       14.61802066       6.53343224       9.58638496       0.42183349       0.01366053      -0.25025114
H        4.09610237       6.55952106       9.19421298      -0.42170671      -0.01849420       0.25308269
H        9.60196068       7.91503424      31.57863967      -0.17817721      -0.17037596      -0.11119533
H       10.11138011       8.39202597      31.83133794       0.19198917       0.17152628       0.07485819
H       13.77691617       4.93599412      12.56005789      -0.71211463       0.29993644      -0.97624308
H        3.01523250       4.75951358      13.12105084       0.70773065      -0.30024961       0.96156311