144
Lattice="11.174675241468789 0.0 0.0 5.587337620734394 9.677552638152974 0.0 0.0 0.0 46.84306309572773" Properties=species:S:1:pos:R:3:forces:R:3 energy=40.623864142285285 pbc="T T T"
Pt       5.68719313       9.62468772      19.83231906      -0.70865959       0.09873372       0.73779660
Pt       2.82300805       0.00244031      19.83176448       0.24709255      -0.35084224       2.20525789
Pt      11.25088214       9.60440150      19.74448941       0.54627383       1.64743471      -1.11327899
Pt      14.06372475       9.64283555      19.54574638      -0.15646347       0.06962394       1.20476580
Pt       1.50589767       2.48672167      19.71698604      -0.78750044      -0.39152223       0.29874730
Pt       4.17417138       2.31412437      19.69345978       0.74903440       0.34653074       0.42405516
Pt       7.07380450       2.41903676      19.68325887      -0.14434946      -0.45402652       0.51071572
Pt       9.86259012       2.47622504      19.64727651       0.51580191      -0.50097537      -0.10694453
Pt       2.92921505       4.79525537      19.85238199      -0.25340590       0.66162664      -0.35738981
Pt       5.65217479       4.74708985      19.88330630       0.09665240       0.16100687       0.52699029
Pt       8.48057385       4.75931058      19.68374599       0.04315906       0.40463743      -0.81419158
Pt      11.25249572       4.97981594      19.87132247      -0.35511670      -0.68012059      -0.03944252
Pt       4.32943324       7.17590910      19.71193711      -0.07712462       0.44862309       0.16415492
Pt       7.15273839       7.15094270      19.92706210      -1.00293529       0.10927189      -0.51632720
Pt       9.75246168       7.41093886      19.65528383       0.71262169      -1.22500837       1.00782394
Pt      12.57435625       7.28359551      19.69064711       0.75696111      -0.02205287       0.40604922
Pt       1.41230919       0.81478492      22.07132637      -0.12970677      -0.62649459       1.38336444
Pt       4.19974025       0.76732429      22.24346083      -0.11406135       0.13304868      -0.03361281
Pt       6.88292802       0.83608602      22.28878382       0.72148478      -0.29107872      -0.53029853
Pt       9.65794673       0.74622299      22.00716985       0.47306013       0.95240098       0.65403342
Pt       2.79630902       3.16003087      22.19647346       0.25065583       0.39177188       0.25966087
Pt       5.55920452       3.19823957      22.24551806      -0.13273963      -0.01523456      -0.02580745
Pt       8.31834122       3.25409799      22.11925403       0.80004793      -0.22480468       0.25700852
Pt      11.27559511       3.11828508      22.13340466      -1.27939594       0.76416409       0.35678971
Pt       4.19020223       5.58987324      22.35362036       0.25540748       0.31181520      -0.39189914
Pt       6.96856120       5.64670340      22.38970353      -0.59455299       0.13500530      -0.68437684
Pt       9.67293276       5.79071528      22.23931989       0.75315356      -1.34974909      -0.63470078
Pt      12.63534200       5.62772850      22.20821512      -0.43187749       0.11998851       0.23057887
Pt       5.48210143       8.05546577      22.25870182       0.65393364      -0.16105546       0.16566956
Pt       8.37737640       8.08217076      22.30959907      -0.71991950       0.31044015      -0.61424869
Pt      11.20633248       8.03923365      22.13443663      -0.04801304       0.10648379       0.20498225
Pt      13.94660541       8.10839514      22.06405983      -0.26189104      -0.53494066       0.50574529
Pt      11.08617880       1.56698249      24.57718570       0.40335032       0.28967002      -0.25900576
Pt       2.69722858       1.57700259      24.60492612       0.25620043       0.02593858      -0.05808071
Pt       5.56100832       1.66131582      24.63624580      -0.35261810      -0.22668570       0.38012993
Pt       8.36855983       1.58363725      24.57476820      -0.10188074       0.15960921      -0.00620279
Pt      12.51112469       3.99868668      24.64315775       0.21679723       0.13708968      -0.32570994
Pt       4.08164929       3.97938041      24.64876350       0.38979417       0.23603217       0.37880093
Pt       7.03002539       3.91891577      24.59499515      -0.38494200       0.71479654       0.61723679
Pt       9.83269585       4.02621515      24.51280753      -0.60823822      -0.25290683       0.07841583
Pt      13.90483015       6.48291321      24.58738042       0.10497995      -0.14439651       0.03270186
Pt       5.50742892       6.44492886      24.86143811       0.28431082      -0.19585302      -0.84968692
Pt       8.27045732       6.42755713      24.62694387       0.07217833      -0.02306434       0.82320356
Pt      11.06410236       6.42593878      24.52753144       0.47017536       0.19141684       0.29334310
Pt      15.30138266       8.92564123      24.51998791      -0.11849161      -0.61324543       0.17345434
Pt       6.91860836       8.87376748      24.67997056      -0.24517399      -0.16942801      -0.08002482
Pt       9.62453219       8.83759584      24.55593287       0.61024678       0.40189430       0.76822925
Pt      12.40082429       8.84623026      24.61186638       0.57139301       0.08276742      -0.32137325
Pt      11.17607084       0.03760305      27.12329816       0.42223611      -0.01349855      -0.81389022
Pt       8.37128010       9.66119699      27.25746194       0.10386435       0.66958630      -0.45698199
Pt       5.55529838       0.04535462      26.97642664       0.33231330       0.45123816      -0.55944872
Pt       8.46676577       0.02949549      26.98139384      -0.82391113       0.19479270       0.32613161
Pt       1.52396605       2.43575611      27.07875870      -0.86322922      -0.05446240      -1.05654836
Pt       4.19593834       2.46429627      27.23809266       0.68890655       0.16539599       0.24142635
Pt       7.13352329       2.50637414      27.31908344      -0.88772309      -0.38992941      -1.22771704
Pt       9.82609347       2.44544054      27.11517633       0.33701432       0.29930884      -1.33923686
Pt      13.94456832       4.88779300      27.19067333       0.48941648      -0.36616188      -0.15865764
Pt       5.62563649       4.86792411      27.23769808      -0.16564308      -0.27417630      -0.51105899
Pt       8.40498800       4.89169423      26.99550060       0.39465767      -0.05831982       0.43671015
Pt      11.24465840       4.95609968      27.08170081      -0.68518621      -1.12307286       0.11381324
Pt      15.27984215       7.33441244      27.04583684       0.51337630      -0.46134311      -0.53938121
Pt       6.99010806       7.32458142      27.37511474      -0.48601952      -0.37520471      -0.64898431
Pt       9.80449286       7.33354170      27.02688406      -0.37939048      -0.40343362      -1.34673309
Pt      12.54764471       7.24284510      26.95902006      -0.02793067       0.68443853      -0.13674079
H        0.41785314       0.16004491      28.57765430      -0.13784097      -0.00904771       0.67529029
H        2.89946262       0.41897621      28.74490625      -0.01470877      -0.31383455      -0.07854695
H        5.80946474       0.19743779      28.47504460      -0.06026846      -0.07169239       0.53793758
H       14.09061963       9.38311278      28.53139484      -0.02134761       0.25053707      -0.39761266
H        1.43925591       2.39924693      28.57932649      -0.03502331       0.02227295       0.89747524
H        4.23142439       2.52525345      28.83621702      -0.06132416      -0.06815764      -0.87505215
H        6.92851830       2.39079080      28.81978573       0.11070040       0.01132880       0.45107514
H        9.67729665       2.23328996      28.59286232       0.03532439       0.01464115       1.00395417
H       13.76016281       4.72591226      28.73531261       0.21571197       0.18111496      -0.37084746
H        5.60672774       4.54480860      28.74662916       0.03211977       0.20595053       0.16212837
H        8.75157442       4.88336906      28.54417139      -0.28716832       0.03144459      -0.46730831
H       11.29448610       4.85320401      28.65199261      -0.12735678       0.08451782      -0.46518895
H       15.10755013       7.09438522      28.53859759      -0.00492521       0.04311560       0.68050373
H        6.70816568       7.26207628      28.90146019       0.21554460       0.01955093      -0.15616213
H        9.59238908       7.61257226      28.47632661      -0.03651224       0.07692947       1.35526824
H       12.15237786       7.13749698      28.45366408       0.23806283       0.12279101       0.24401365
H        0.01357981       0.01224642      18.33332365       0.03363466       0.01565442      -1.14688051
H        2.66129060       0.20120341      18.41179453      -0.15682240       0.07015307      -2.63967156
H        5.85864839       0.42219502      18.17828932      -0.30688664      -0.58051038       1.22421288
H        8.12955569       0.09782522      18.08510936       0.06353145       0.02225907      -0.91158855
H        1.42320890       2.12118651      18.22343010       0.00825736       0.25237513      -0.32197517
H        3.96498536       2.20029766      18.16941724       0.15806475       0.09563733      -0.10376768
H        7.02698978       2.66732533      18.16876028       0.01818721      -0.15389493      -0.27879837
H       10.18169136       2.46193306      18.09196740      -0.30102837       0.04534115       0.55530971
H        2.98319704       4.96706473      18.28334552      -0.04310429      -0.10443128       0.36417982
H        5.55469423       4.48477151      18.38024624       0.01826872       0.14563681      -0.49094936
H        8.58666944       4.68539961      18.05724470      -0.14736408       0.18059327       1.19435263
H       11.31862257       4.95290316      18.31781155       0.00033450       0.03600625       0.00198309
H        4.64937068       7.64595592      18.25258401      -0.20926262      -0.38103342       0.17330599
H        7.12322056       7.16284962      18.33705174       0.05372166      -0.02653173       0.55648422
H        9.91052024       7.37678466      18.15497764      -0.06253206       0.01505844      -0.79650956
H       12.75727681       7.43968056      18.17552664      -0.08048891      -0.13042848      -0.36616704
H        4.30446842       1.01680713      10.73562385       0.03421624       0.10208129      -0.44149598
H        4.36109331       1.19102738       9.99707178      -0.03220076      -0.10698747       0.44371948
H        1.70755667       1.00746985      32.19819882       0.43228269       0.55193669       0.54673201
H        1.35505834       0.56372063      31.74303893      -0.43783370      -0.55658346      -0.57896543
H        8.93199484       4.69520963      14.22246998       0.02085808       0.16680495      -0.15144184
H        8.88744756       4.16660548      14.74294085      -0.01474965      -0.16048931       0.17691736
H        0.60837395       0.32141536      40.54311247       0.17733903      -0.30324546       0.06957406
H        6.56763443       9.35441469      40.68693009      -0.17601979       0.30724016      -0.06777557
H        7.83853504       7.52555518       9.76457152       0.14499454       0.00833243       0.39479345
H        8.09849891       7.54281434      10.47850214      -0.14089672      -0.00822882      -0.39310935
H        9.43662657       2.22923623      32.41648085      -0.98979044      -0.20012234       1.71849799
H        9.78520122       2.30074193      31.80973783       1.00083053       0.20633104      -1.75063193
H        4.68871979       6.18217358       7.39602062       0.05638610      -0.45691386      -0.87779629
H        4.73296963       5.82035377       6.70952102      -0.05526612       0.46686557       0.88170773
H        8.46111557       2.47615147      36.77818249       0.00231631      -0.03844442      -0.04057536
H        8.43884172       2.98878075      37.32052487      -0.00239421       0.03780268       0.03874576
H        4.09749926       3.10591017      15.23895873      -0.06282491      -0.89852917       0.12824200
H        4.04385084       2.33850848      15.33768056       0.06641931       0.89602107      -0.10605802
H        4.06929113       4.73218021      35.09850533      -0.37499800       0.47665918       0.39606330
H        3.66706519       5.22414052      35.53069095       0.37992731      -0.45672566      -0.41956601
H       11.11573208       6.98291868      14.06280584      -0.04396690      -0.15894099       0.37256831
H       11.04123117       7.08047629      13.33786276      -0.11641956       0.00755082      -0.49874341
H        6.74244215       0.73348346       0.79122870      -0.02345489      -0.19866247      -0.06225567
H        6.85418982       1.43295447       1.01486330       0.03535447       0.19301376       0.06198519
H        7.56591496       3.50480845      10.20263697      -0.03062595       0.02938797      -0.00371036
H        8.10028136       2.98952875      10.28910381       0.02648108      -0.02675876       0.00518257
H        9.34738586       0.99107504      44.31036839      -0.12622523      -1.08112037      -0.33518729
H        9.42703233       1.67500531      44.52284055       0.12411127       1.07954001       0.33811167
H       15.38872177       8.35969189       1.96079412       0.76711696      -0.50908232      -0.70849633
H       14.91191585       8.67540421       2.39847786      -0.77659047       0.51432121       0.70495230
H        2.80664171       3.15054210      37.35210052       0.42915598       1.06484175       1.43194878
H        2.99907422       3.62104108      37.97801109      -0.44256866      -1.07584250      -1.40255797
H       11.49561372       5.72774377       2.86264789      -0.70026469      -0.74290156       0.69690937
H       11.05054438       5.25588412       3.30470418       0.70217890       0.74439949      -0.69742566
H       12.40140667       3.50375614      30.61792328      -0.05256030      -0.03688608       0.06490827
H       12.89608797       3.98652540      30.90085232       0.02638569       0.03864831       0.10030877
H       10.04830741       0.25037499       7.12863902       0.92770189       0.05866589      -0.15712245
H        9.33508616       0.20178341       7.24989355      -0.92724580      -0.06647896       0.15931456
H       10.34054677       6.11490483      32.91547900       0.15563095      -1.17550826      -0.81257153
H       10.26355734       6.70042651      33.31813805      -0.15218721       1.16501582       0.79794216
H       13.55882645       6.40344371      11.79581301       0.34194362       0.03672513       0.13758515
H       12.88129865       6.33124520      11.51083301      -0.32690653      -0.04020460      -0.14934845
H        3.65445478       3.52050069      42.43135683       0.00124493      -0.03421239       0.00724023
H        3.68816107       2.79312258      42.60669465      -0.00358540       0.03256534      -0.01066751
H       12.80697111       8.38615991      15.29314330      -0.05101043       0.07112032       0.06234694
H       12.07397193       8.48521845      15.16601249       0.18460034       0.08061104       0.11485839
H       12.42179359       7.69992735      37.52086967      -0.13680610       0.80927485      -0.12100101
H       12.54468999       6.99030795      37.62494597       0.14395556      -0.81972921       0.11509390
144
Lattice="11.174675241468789 0.0 0.0 5.587337620734394 9.677552638152974 0.0 0.0 0.0 46.84306309572773" Properties=species:S:1:pos:R:3:forces:R:3 energy=39.959010519061096 pbc="T T T"
Pt       5.69061487       9.55957432      19.88247332      -0.15037201       0.44429308      -0.42978257
Pt       2.88008371       0.02667431      19.89242034      -0.19329195      -0.08652997      -0.39279878
Pt       5.70879072       0.06607332      19.85674818      -0.20189667      -0.98396641      -0.04927160
Pt      14.11304972       9.61733699      19.54815511      -0.54945868       0.19208148       0.54608613
Pt      12.54152499       2.39197366      19.70051186       0.60538328       0.05735052       0.08331481
Pt       4.26740432       2.40919190      19.79304933      -0.35531774      -0.30070159      -0.65928668
Pt       7.10287870       2.32799101      19.84009687       0.02225701       0.51379824      -0.49376112
Pt       9.87365192       2.43756024      19.67716566      -0.51026607      -0.74072152       1.42337239
Pt       2.93904928       4.76689988      19.80837669      -0.70909846       0.06887574      -0.35811895
Pt       5.74722159       4.75439992      19.90198434      -0.87620991      -0.01071070      -1.03080237
Pt       8.46847569       4.81070794      19.75080209      -0.55133402      -0.14620245       0.23754913
Pt      11.15905135       4.79532459      19.85883874       0.54993486       0.61120117      -1.25677562
Pt       4.27780141       7.18168561      19.75322626      -0.76364213       0.10497481       0.49906555
Pt       6.97478192       7.15048992      19.83924154       0.53639001       0.37482625       0.42977357
Pt       9.74475554       7.23824493      19.69937661       0.43368730       0.02848088      -0.25488916
Pt      12.59551764       7.20885446      19.72257451       0.02160087       0.13961117       0.08602269
Pt       1.44303973       0.82017278      22.34705142      -0.54119492       0.48488438      -1.25611258
Pt       4.26141380       0.79628785      22.19747263      -0.43256578      -0.09375837       0.51156628
Pt       7.05306397       0.78830608      22.31462470      -0.33900639      -0.18874753      -0.51472795
Pt       9.79115962       0.77397377      22.10194396       0.01461904      -0.00572148       0.43258739
Pt       2.83379437       3.25978558      22.31801461      -0.34992203      -0.21297324      -0.58085418
Pt       5.61196233       3.08842579      22.26110766       0.18450907       0.97523671       0.11199521
Pt       8.36947648       3.14945728      22.27028827      -0.06419557       0.59719223      -0.39050099
Pt      11.05395087       3.23852665      22.13339057       1.16778457      -0.32386029       0.53225672
Pt       4.22883765       5.56210871      22.27490418      -0.10319689       0.53280073       0.15356815
Pt       6.98986971       5.65701865      22.25445970       0.24833670      -0.32897189       0.68933648
Pt       9.79445800       5.65407794      22.13842705      -0.73286527       0.22918044       0.66591811
Pt      12.57232259       5.62605303      22.22648342       0.21676201      -0.00949174      -0.25878155
Pt       5.56562404       8.02457303      22.26136785      -0.27068165      -0.17785582       0.03084167
Pt       8.29914066       8.15118358      22.18834427       0.69816566      -1.00769567       0.42451641
Pt      11.11637202       8.04474673      22.12565948       0.19612376      -0.00024040       0.35325676
Pt      13.88840877       8.07817882      22.15814477       0.53914827      -0.49080101      -0.28564006
Pt      11.18200506       1.74059645      24.52234228      -0.47127759      -0.62509567       0.46805111
Pt       2.76860661       1.67520050      24.55393068      -0.01881893      -0.15503727       0.63499105
Pt       5.45394967       1.64115410      24.66560677       0.64866084      -0.26366356      -0.64203149
Pt       8.35344763       1.63315545      24.69616824       0.32708806      -0.11274314      -0.84829390
Pt      12.53765551       4.07095788      24.65323875       0.19179352       0.37944934      -0.18010168
Pt       4.21604290       4.07808828      24.74263440       0.01370141       0.02603988      -0.49884367
Pt       7.00367294       3.90134065      24.64336725      -0.59141910       1.29275668       0.00095259
Pt       9.72226321       4.05306538      24.53596816       0.24648783       0.16706952       0.19925536
Pt      13.96624654       6.47233457      24.63881423      -0.16113105      -0.22422284      -0.37622982
Pt       5.54793470       6.47162538      24.76105379       0.35456389       0.11594005      -0.54025257
Pt       8.31913674       6.47056706      24.72889584      -0.10426904       0.04775362      -0.54218531
Pt      11.15875366       6.42571627      24.50244740      -0.50136977       0.43700531       0.47630796
Pt      15.21121602       8.87833274      24.46430172       0.92167938       0.35480636       0.68965197
Pt       6.87110042       8.95869751      24.61066482       0.05089268      -0.72187376       0.48728579
Pt       9.65527301       8.88087653      24.55677584       0.36162055      -0.13413909       0.11363274
Pt      12.51354774       8.84834298      24.54244873      -0.48567885       0.06783702       0.40330637
Pt      11.19776479       0.08316830      27.06021786      -0.23589334      -0.55540204      -0.44496953
Pt       2.69587920       0.06348010      27.08125090       0.44089228      -0.33282265      -0.60735399
Pt       5.49093338       0.12187064      26.91666740       0.60582346      -1.56840754       1.15804482
Pt       8.38841045       0.16324298      26.91739776      -0.10555048      -1.50616002       0.74503326
Pt       1.50916240       2.53360357      26.99821957       0.08602012       0.22762698       0.94020957
Pt       4.29324532       2.46155421      27.10423945      -0.92032647       0.58539784      -0.87361747
Pt       6.98280238       2.42113019      27.11927656      -0.05321310       0.10362370       0.13430698
Pt       9.88805209       2.37181029      27.10945111      -0.34571776       0.93481255       0.06210012
Pt       2.86686622       4.93609192      27.02381065      -0.20840026       0.03551362       0.30893478
Pt       5.65749718       4.86047940      27.20275694      -0.01141184       0.23362871      -0.61991668
Pt       8.37427063       4.74884918      27.00508001      -0.21499439       0.52014297      -0.18248998
Pt      11.01162404       4.81823809      27.09030139       0.85048449       0.50176549       0.12875314
Pt      15.32280797       7.35320166      27.12090985       0.04360257      -0.03973434      -0.25926131
Pt       6.93780260       7.27257810      27.25456974       0.15095565       0.27046001       0.03115432
Pt       9.74009892       7.34350599      27.10325345       0.13705756       0.10499641       0.65087122
Pt      12.49274218       7.25819026      27.00140931       0.12488363      -0.11978950       0.14392471
H       11.14607220       0.14482854      28.59111064      -0.01101898      -0.02272264       0.31543812
H        2.75882746       0.25147563      28.59844039      -0.04744791      -0.11142288       0.36965936
H       11.31761154       9.55937699      28.51258460      -0.27286580       0.25202057      -0.97867197
H        8.14740753       0.17686458      28.48361454       0.29672205      -0.10492853      -0.35709694
H        1.86591030       2.80947610      28.55973268      -0.43902183      -0.28948978      -0.95355511
H        4.26654858       2.17710586      28.57967159       0.00111637       0.01352992       1.05637610
H        6.94633290       2.19444003      28.65606520       0.00994323       0.19251831       0.00567880
H        9.90848883       2.55906485      28.66133805       0.03252497      -0.22475557      -0.23237735
H        3.14314710       5.01166090      28.56117797      -0.20802642      -0.08236555      -0.08512512
H        5.81957586       5.15595504      28.69864593      -0.01129203      -0.22550762       0.35754046
H        8.50120441       4.87574156      28.53231542      -0.12186670      -0.06396751       0.34631065
H       10.72706500       4.79487483      28.64543247       0.32076725       0.06369703      -0.50677526
H        4.32013893       7.14095785      28.64947914      -0.18151578       0.25265694      -0.04749573
H        6.91093669       7.21795938      28.84218599       0.09780554       0.16084771      -0.66966033
H        9.94048573       7.55355875      28.70483719      -0.23087479      -0.24694034      -1.11360657
H       12.48843313       7.04436350      28.56487040       0.01345561       0.16596036      -0.40697533
H        5.57762624       9.57295273      18.31418505       0.17047341      -0.02990965       0.23777436
H        8.55355042       9.64147023      18.33409355      -0.17478772       0.03976109       0.06102128
H       10.89176951       9.34524324      18.40743289       0.21037848       0.21658280      -0.11973242
H        8.31044792       0.23549772      18.04409183       0.08208839      -0.17684332       0.00882043
H       12.35783186       2.35029526      18.14060988       0.20178045       0.01225748       0.43030500
H        4.14455122       2.20848195      18.20774188       0.10055560       0.26090476       0.78229314
H        6.75377035       2.62740456      18.32231696       0.33024433      -0.28681996       0.39729127
H        9.77659628       2.42099733      18.19526226      -0.05688566       0.00413691      -1.33331501
H        2.86623457       4.60074577      18.22405429       0.01629668       0.15168276       0.67297268
H        5.46372929       4.87499897      18.31063133       0.33384749      -0.17225364       0.91253728
H        8.45322484       4.82760355      18.20493117      -0.09055786      -0.05652057      -0.07515335
H       10.86544130       4.90177344      18.27105892       0.47120664      -0.14111243       0.80309135
H       15.17671158       7.15421104      18.23760855       0.12066471       0.00983987      -0.22603881
H        6.92415897       7.09068516      18.31706034       0.01615501       0.05257675      -0.58152443
H        9.75067481       7.02984558      18.12385549      -0.06697339       0.24907769       0.59094417
H       12.36691976       7.34578067      18.17723247       0.22142008      -0.15930633       0.23954867
H        5.69481719       1.13766701       9.97263293      -0.01452673      -0.02361584       0.01147303
H        5.30363318       0.54217589      10.20355462       0.01505792       0.02067501      -0.00619070
H        7.51631462       8.98000745      32.53682121       2.05091286      -0.40226352      -0.21653010
H        8.31599946       8.82163208      32.45810665      -2.04800081       0.40240160       0.19435948
H        9.92099238       2.78169640      15.26346207      -0.12830167      -0.39153045       0.80324894
H        9.77125909       2.40707090      15.92503562       0.23126791       0.51471329      -0.81184155
H        6.63765541       6.99867648      39.28305623       0.25409007      -0.19461915      -0.01965737
H        7.23721566       6.53905780      39.23862037      -0.25395507       0.19456799       0.01792239
H        5.47520275       8.30723935      10.30790779      -0.12178365      -0.23075524       0.53109199
H        5.62805809       8.58014304       9.64422952       0.11621413       0.21570426      -0.53510290
H        8.73402042       1.27380819      31.96571010      -0.92987168       0.58221245       0.11171418
H        8.07338253       1.68266758      32.05665769       0.93626809      -0.57219881      -0.13702978
H        3.47349629       5.67760707       6.70429117      -0.05631231      -0.27698857       0.03551208
H        3.31890601       4.94034452       6.77237532       0.06009697       0.28986466      -0.02420205
H        8.29080776       2.36154347      36.14504030       0.11536875      -0.03439571       0.00195970
H        9.00312453       2.13218805      36.21516539      -0.10656812       0.03349274      -0.00901249
H        2.57876647       1.74012710      14.92940229       0.18910722      -0.54142529       0.75861174
H        2.73725914       1.29328087      15.54470544      -0.19576561       0.54273009      -0.72323644
H        6.30750121       4.11791351      34.49689310       0.28001064       0.33912852      -0.86184156
H        6.10145933       3.86134754      35.14246158      -0.27686670      -0.34227300       0.85943657
H       10.65184720       7.09400063      12.29066397      -0.10169691      -0.74676180       1.11159706
H       10.58997841       6.65610347      12.94439316       0.10398185       0.74807382      -1.11624038
H        4.93113042       2.03829708       0.96377814       0.01319053      -0.18786229      -0.42278761
H        4.95372435       1.72768077       0.26945623      -0.01371401       0.19071083       0.41609117
H        6.89009588       5.45027674      11.36134718      -0.48554620      -0.32397547       0.63456607
H        6.45773367       5.15410577      11.93010441       0.48093104       0.33454990      -0.63940305
H        9.03839483       2.23948136      45.41734171      -0.06290204       1.28227580       0.07388297
H        9.00060162       3.02393038      45.46202960       0.06073435      -1.28286898      -0.07242952
H        3.84208998       6.52154947      46.35389450      -0.09312074      -0.60858482       0.99549598
H        3.78153213       6.11558854       0.17749523       0.08734707       0.60335672      -0.99434620
H        1.33495603       2.07789918      38.23751956      -0.02202176      -0.25135851       0.45960066
H       12.53648297       2.42886259      37.59243785       0.01525101       0.25150919      -0.46401113
H       11.04456628       7.15481804       2.24202314      -0.17970625      -0.05285751       0.15078339
H       11.59851047       7.31864742       1.77659845       0.18487313       0.05412430      -0.15559109
H       11.37693571       3.19501526      33.03439564       0.49786511       0.37012240      -0.06886649
H       11.99240670       3.64570415      32.95745575      -0.51072395      -0.37490517       0.05757060
H        5.27656750       8.84911745       6.70893750      -1.20592308      -0.07335255      -1.08341277
H       15.85913144       8.81683805       6.17319750       1.20176744       0.06095932       1.09383166
H       10.44561093       7.79981436      34.46761739       0.98460275      -1.23392415      -1.82809949
H       10.78512811       7.37432898      33.83791185      -0.98381674       1.23172796       1.82551146
H       13.89280625       5.94252328      10.13380068       0.13584733       0.74942034       0.30667299
H       14.01736189       6.64594780      10.42689998      -0.12835796      -0.74406755      -0.31255594