144
Lattice="11.174675241468789 0.0 0.0 5.587337620734394 9.677552638152974 0.0 0.0 0.0 46.84306309572773" Properties=species:S:1:pos:R:3:forces:R:3 energy=38.93533653614864 pbc="T T T"
Pt       5.62772757       9.67671191      20.01674465      -0.26684788       0.06871814      -1.25786221
Pt       8.40678313       9.67570677      20.00193208      -0.24568152       0.04866610      -1.33720744
Pt       5.59263067       0.01787513      19.97006454       0.11864279       0.01949025      -0.25734225
Pt      13.97786627       9.67142508      19.98846293       0.12578146       0.26383018      -1.36916959
Pt       1.42164156       2.43092449      20.00729904      -0.16750816       0.03826470      -1.17191947
Pt       4.18348944       2.41813572      20.04190058       0.11954448      -0.14037710      -1.19175470
Pt       6.97906793       2.43867306      19.97693687       0.19009015       0.18550666      -0.42529830
Pt       9.79572781       2.41796669      19.97153557       0.09536505       0.03455280       0.05178511
Pt       2.81511063       4.82693140      20.00044077      -0.53848726      -0.14145902      -1.29887331
Pt       5.55013415       4.85841951      20.00257032       0.32535592      -0.33129439      -0.46341875
Pt       8.39629715       4.85729588      20.00270102       0.33124426      -0.46267262      -1.49721026
Pt      11.17605111       4.87597230      19.98763933      -0.00589348      -0.21565464      -1.65127003
Pt      15.33417151       7.23657880      19.96998620       0.17204899       0.21247624      -0.05493779
Pt       6.97277928       7.18706232      20.02477807      -0.15661542       0.81035262      -2.62103820
Pt       9.78376284       7.27438858      20.00324998      -0.16896699       0.38248041      -2.11939859
Pt      12.57689612       7.27953541      19.99383664      -0.04711907      -0.08670429      -0.60407484
Pt       1.43735878       0.82923487      22.30407494      -0.48584470      -0.23461215      -0.05202936
Pt       4.18364017       0.84077836      22.29562677       0.31387106      -0.61731654       0.03924507
Pt       6.96728882       0.82134097      22.27846207       0.00222812      -0.13185441      -0.10678872
Pt       9.75761362       0.77377210      22.25183847       0.30105487       0.44680944       0.51957220
Pt       2.77929797       3.20381176      22.27812862      -0.01518879       0.39676392       0.48868448
Pt       5.54274447       3.23616680      22.27771959       0.66285026       0.06560350       0.24515933
Pt       8.38949343       3.22143128      22.26453669      -0.24413604      -0.00351110       0.47329643
Pt      11.17986708       3.22106958      22.30832169      -0.15333675      -0.21257317      -0.56582552
Pt       4.14977693       5.62915314      22.27716092       0.24822074       0.40093607       0.35786852
Pt       6.97351295       5.66331632      22.25107265       0.11636917      -0.37480441       0.70656210
Pt       9.81815726       5.62292797      22.26599681      -0.61270779       0.35069028       0.40660715
Pt      12.55546351       5.62648508      22.31015195       0.27001369       0.39268821      -0.53971678
Pt       5.62577518       8.09376736      22.28660460      -0.55599004      -0.33653712       0.13354851
Pt       8.33952923       8.06190663      22.28332266       0.66943073      -0.13260774       0.06519675
Pt      11.17448909       8.06281974      22.27864467      -0.04525733       0.10637040       0.14267772
Pt      13.98817404       8.09933177      22.27207825      -0.18506391      -0.41886282       0.16739297
Pt      11.18492037       1.63082478      24.52687413      -0.11758376      -0.39231208       0.20371212
Pt       2.84645894       1.63545057      24.55502011      -0.34274942       0.02384107       0.23978445
Pt       5.62938925       1.60150750      24.54342631      -0.23182662       0.07156255       0.22075647
Pt       8.37400093       1.56580258      24.55104378       0.16906522       0.46609142      -0.16489901
Pt      12.54613152       4.05808294      24.52986019       0.52615035      -0.50131065       0.40062058
Pt       4.21567430       4.02169293      24.54766205      -0.32080531       0.01209961       0.15232991
Pt       6.97494095       4.05049178      24.56140557       0.31476554      -0.26635912      -0.17116015
Pt       9.76429196       4.01783742      24.54240189      -0.26459971      -0.03040638       0.05173986
Pt      13.95741194       6.44251831      24.53807019       0.08728074       0.01778792       0.19303459
Pt       5.58330261       6.40949543      24.57625930      -0.08696295       0.49302965      -0.39379174
Pt       8.36105796       6.47032219      24.60653012       0.04002617      -0.33680657      -0.95040864
Pt      11.18200875       6.40389876      24.55355110      -0.34321660       0.58730739      -0.13115405
Pt      15.33433160       8.83562600      24.55363574       0.43312988       0.15531033       0.06550811
Pt       6.99174331       8.86846729      24.55725273      -0.22644711       0.15182802      -0.03782787
Pt       9.77552460       8.86144214      24.52407989       0.05146783      -0.01154143       0.09982926
Pt      12.53856229       8.84498191      24.57751212       0.12646230       0.01140002      -0.35078952
Pt       0.03028741       0.04386503      26.86436044      -0.48525849      -0.35838431      -0.40716276
Pt       2.78979940       0.00458151      26.82000743       0.08522359       0.10257803       0.47829670
Pt      11.15690450       9.64330080      26.86938586      -0.19451168       0.43752465       0.51284927
Pt       8.36846147       0.02357425      26.85607046      -0.04684370      -0.33761236       0.59360480
Pt       1.40485466       2.41928611      26.83971951      -0.09313513       0.28233671       0.47861320
Pt       4.18954421       2.41227952      26.88710727       0.48894340       0.31300253       0.71782094
Pt       6.99730343       2.45649264      26.88313287      -0.03579284      -0.48156688       0.90845513
Pt       9.75054073       2.41281966      26.85989400       0.45458651       0.09414686       1.49902165
Pt      13.95400808       4.82986264      26.85307903       0.21275726       0.06635092       0.60675365
Pt       5.59192546       4.85289723      26.86349340       0.37558216      -0.15154983       2.04916883
Pt       8.41656123       4.84700705      26.85817098      -0.21986020      -0.12667826       0.69702739
Pt      11.19547358       4.84316045      26.82941487      -0.14971741      -0.00705228       0.82677507
Pt       4.19089578       7.22693404      26.85537983      -0.16382633       0.24898514       1.18196094
Pt       6.99393756       7.27605666      26.87411733      -0.53792650       0.11608866       0.68625963
Pt       9.73114119       7.24689277      26.81551502       0.60328370       0.08444378       0.67559522
Pt      12.54940025       7.27332156      26.86382135       0.34735194       0.06370834       0.31389752
H       16.45390428       9.63481630      28.34574643       0.10078160       0.05803932       0.70359838
H        2.67647440       0.12746211      28.36048199       0.05927216      -0.06040936       0.24411547
H        5.32584656       0.15123406      28.40343909       0.13407405      -0.14891574      -0.04588031
H       13.87249206       9.65319543      28.41794181       0.03405324       0.04407128      -0.27159491
H       12.53678904       2.53936495      28.39415144       0.04285824      -0.07849141       0.01770513
H        4.54252934       2.69594134      28.41043062      -0.32354972      -0.25580397      -0.39808035
H        7.05141188       2.18225440      28.45387720      -0.03390720       0.29643357      -0.56526917
H        9.89497099       2.48389477      28.49154846      -0.19010584      -0.08676574      -1.15747190
H        2.93069676       4.86012075      28.41373767      -0.14644568      -0.03437283      -0.16495222
H        5.79193393       4.84125165      28.52676395      -0.26948404       0.04274202      -1.48433733
H        8.54732844       4.86547271      28.41601698      -0.10993678      -0.02993330      -0.05717414
H       11.14857870       5.08371224      28.37795874       0.09970533      -0.22413182      -0.08849018
H       15.29866636       7.17708083      28.45850995       0.07080999       0.05333188      -0.71183157
H        6.76361576       7.51443098      28.40230139       0.17182145      -0.15869184      -0.00426906
H        9.93323679       7.05903328      28.34433688      -0.14247358       0.19348273       0.20038614
H       12.68442843       7.54409939      28.38314722      -0.08750185      -0.16977510       0.22816332
H       11.09022109       0.08403563      18.42945083       0.15722786      -0.09165881       0.52077955
H        2.78493849       0.17190205      18.40239785       0.01702327      -0.22252077       0.75020939
H        5.66249415       0.11435222      18.42835642      -0.02946382      -0.04215273      -0.18161502
H        8.51638257       0.11183704      18.38962457      -0.15806937      -0.11687413       0.78782642
H        1.62253783       2.52387868      18.43111540      -0.27791905      -0.11296605       0.47757912
H        4.09752549       2.31235894      18.47923691       0.11516435       0.09124563       0.11905340
H        7.19861070       2.84330283      18.48453694      -0.15531239      -0.27717727      -0.01420098
H        9.84372709       2.52586203      18.44635512       0.03663848      -0.06553614      -0.54387242
H        2.76056486       4.58827101      18.41384435       0.03737381       0.30863038       0.64647746
H        5.55166545       4.77290673      18.46178871      -0.01277864       0.04910756      -0.33243853
H        8.71169341       4.65050223      18.42747384      -0.38445786       0.31883198       0.78409296
H       11.04164254       4.93648749      18.36007125       0.25782537      -0.07027108       1.06300783
H        4.09867711       7.04097043      18.44903846       0.03269492       0.09465285      -0.46157655
H        6.86555289       7.23554143      18.32271783       0.17758533      -0.06961648       1.70733225
H        9.71402100       7.53591474      18.33435492       0.09244660      -0.38840219       1.58939564
H       12.53677588       7.29859981      18.42869246       0.03820146      -0.03051308       0.10584898
H        9.00218054       7.72865791      13.13720120       0.09278084       0.14151455      -0.05323804
H        9.39130136       8.33006556      12.90484965      -0.09048098      -0.13971350       0.05379802
H        0.55699934       0.65195929      33.14351978       0.06502989       0.05526946      -0.10356738
H        0.93907737       0.97982354      32.58453074      -0.06733283      -0.06169620       0.08620061
H        4.89291908       7.69822234      14.88379642       0.15620841      -0.05162210       0.01704436
H       15.33131808       7.79841366      14.84112960      -0.14715452      -0.04700234      -0.01454396
H        2.65813272       2.45101614      36.83097026       0.17536956      -0.09402422      -0.04168735
H        2.01767671       2.79525690      36.98334036      -0.17247245       0.09464746       0.03971686
H       10.53952243       7.73555349       8.56025114      -0.39952710       0.02931289       0.07568686
H        9.79399543       7.78605503       8.69526186       0.40108415      -0.02650962      -0.06868137
H        7.55225667       0.76099613      33.92143775      -0.85732722       0.64607817      -0.71633869
H        7.02762273       1.15767115      33.48840853       0.85801065      -0.65392929       0.70028883
H        4.67889189       6.75137473       1.88241691      -0.24593940       0.34614506       0.17786045
H        4.29351239       7.33380053       2.18420071       0.22541660      -0.36253226      -0.18733162
H        8.28893542       2.84634793      38.32784528       1.22598028       0.66122580      -0.72770065
H        7.73272887       2.54445043      38.65280082      -1.13035500      -0.62182647       0.67046434
H        5.95810727       1.60945909      16.00714009      -0.09208073       0.13980965       0.08207271
H        5.66102782       2.04043112      16.54880121       0.06422539      -0.09354008      -0.17744392
H        4.33958671       6.73461945      34.69536688       0.04213781       0.43563130      -0.19962355
H        4.27487285       6.06748808      34.99935436      -0.04407411      -0.43411127       0.19882214
H       13.59989320       9.17632749      16.02981859      -0.34588155       0.00611177       0.05994090
H       12.87199699       9.24414130      16.22462336       0.30530208      -0.06979980      -0.12233490
H       13.83348896       9.60262286      44.82805342       0.50889617      -0.60440367      -0.44823381
H        7.84426541       0.42041007      45.17193978      -0.52382708       0.66838455       0.43453500
H        7.74642671       0.79551546      10.77870939      -0.24362542      -0.17841838       0.23018111
H        7.25845129       0.43868426      11.23688505       0.24035344       0.17406756      -0.22677878
H       14.48727152       6.99024420      45.33786391       0.21125162      -0.18077633      -0.20857973
H       14.03686606       7.32002819      45.82224195      -0.19064012       0.11557084       0.23208630
H        0.99116744       0.00368786       1.92838427      -0.09412887      -0.38228193       0.09827143
H        6.40788723       9.00170838       2.21263605       0.07709248       0.27122673      -0.15590502
H        5.64581421       1.80680111      40.31253823       0.32929534       0.00357563      -0.72834474
H        5.97926806       1.81679891      39.61770392      -0.43331730      -0.03373390       0.78678954
H        1.32006016       2.20376154       3.45081157      -0.15453257       0.23050611       0.47568473
H        1.55159883       1.94645957       2.80370450       0.18606021      -0.10189334      -0.41881219
H        8.90410339       0.52932011      30.56434086      -0.58860654       0.61686993       0.46416822
H        9.37824990       0.05244459      30.29154914       0.62531036      -0.60254705      -0.22146893
H        4.67590992       5.66156363       7.86107036       0.01627226      -0.41259885      -0.02928513
H        4.70575139       4.90473723       7.80693014      -0.01620155       0.41302153       0.02960240
H        9.83547148       8.98426077      32.44771320      -0.00079858       0.13552722       0.09148886
H        9.84196323       8.38590100      32.00440909       0.00150718      -0.12547088      -0.11275651
H        2.89542906       4.72160598      14.18664315       0.24799578       0.13210715       0.40526143
H       13.69817407       4.53059816      13.58049704      -0.24144049      -0.12244828      -0.38857523
H        8.94806179       7.66797235      42.86919832       0.94927400      -0.02778900       0.51256156
H        8.31311936       7.68669455      42.52639440      -0.94870347       0.02830553      -0.51299655
H       10.48244282       1.05629765      15.47995182      -0.35113174      -0.21048929      -0.24019608
H        9.94355235       0.68715876      15.08670361       0.39167443       0.30742761       0.26743564
H       13.36962858       8.86234137      39.07392746      -0.40330225       0.36168328      -0.43513456
H       12.92172542       9.26321121      38.59659467       0.40972230      -0.37165299       0.42839879
144
Lattice="11.174675241468789 0.0 0.0 5.587337620734394 9.677552638152974 0.0 0.0 0.0 46.84306309572773" Properties=species:S:1:pos:R:3:forces:R:3 energy=40.61455846045571 pbc="T T T"
Pt       5.71469910       9.62700258      19.85132206      -0.82879466      -0.00421404      -1.07546377
Pt       8.38603771       9.67484140      19.83889627       0.40441066       0.00764980      -1.60682881
Pt      11.26278615       9.62481571      19.79890179       0.19457622       0.75955099       1.13131869
Pt      14.10705634       9.63995740      19.54069702      -0.43586501       0.20120169      -0.19681025
Pt       1.46906126       2.47587227      19.71382571      -0.56394172       0.04871675      -0.01568656
Pt       4.18150574       2.34254117      19.70143859       0.65371817       0.10764515       0.60727328
Pt       7.08547101       2.42046761      19.70299412      -0.53303218      -0.68310440       0.10660874
Pt       9.83908185       2.46204757      19.65559465       0.14868511      -0.46896410       0.48390815
Pt       2.92695762       4.79262264      19.85038877      -0.37190703       0.61040950       0.21634910
Pt       5.65816753       4.75380805      19.89247362       0.10229546       0.29088590      -0.66401267
Pt       8.47960182       4.74903083      19.67280414      -0.13238585       0.60404372       2.10601449
Pt      11.21441288       4.96715390      19.87001735      -0.04099419      -0.49858090      -0.25911322
Pt       4.34004590       7.17507192      19.70713441      -0.50515473       0.27908197       0.60382181
Pt       7.14670048       7.15520323      19.93035203      -1.29415226      -0.11701297       0.36649099
Pt       9.70843103       7.39674524      19.64689551       1.13255942      -0.91812587      -0.31267986
Pt      12.57485313       7.27374456      19.66914698       0.57717335       0.00502702      -0.04282892
Pt       1.43432106       0.81318204      22.09256436      -0.19758184      -0.39321119       0.93999332
Pt       4.21120796       0.77518290      22.27237932      -0.06726135       0.06674688      -0.43053538
Pt       6.94169152       0.82247107      22.29548600       0.20537691      -0.26202500      -0.58166355
Pt       9.69029143       0.74222934      22.01254957       0.34695446       0.86764967       0.76462042
Pt       2.82515714       3.16211830      22.21673447      -0.07988238       0.35181051      -0.00418756
Pt       5.55763708       3.19354937      22.23003276       0.13786848       0.06180752       0.14409389
Pt       8.30013838       3.23489912      22.12133112       0.91384524      -0.06251124       0.50775999
Pt      11.23694076       3.08947381      22.14394096      -0.83552814       0.86926973       0.30978891
Pt       4.17962793       5.58732284      22.34585614       0.55691618       0.41120940      -0.09914792
Pt       6.99806836       5.64625643      22.36879620      -0.74949437       0.04404609      -0.40713140
Pt       9.71034205       5.78030701      22.24157628       0.32197595      -1.35561657      -0.68408704
Pt      12.67772355       5.62087740      22.23848959      -0.87763071       0.05871680      -0.06122157
Pt       5.49716521       8.06745438      22.24319422       0.52954525      -0.38964659       0.13556091
Pt       8.35046300       8.09257442      22.27103004      -0.32978284       0.07352044       0.05896903
Pt      11.16686304       8.00974439      22.09599912       0.35266849       0.28110105       0.55648547
Pt      13.93206217       8.12044387      22.06625912      -0.13869791      -0.55987626       0.30813259
Pt      11.09083917       1.59816378      24.57424509       0.13137439       0.25143257      -0.08533183
Pt       2.69791020       1.62660131      24.57705217       0.22617842      -0.40687120       0.36576954
Pt       5.55226927       1.62710368      24.62873542      -0.34375137       0.24061748       0.39271829
Pt       8.34651472       1.58101177      24.59280310       0.14694062       0.30996349      -0.03781579
Pt      12.54973688       4.01599001      24.65576657      -0.23626307       0.18834463      -0.21034068
Pt       4.09148435       4.02391375      24.67674541       0.71797806       0.03185623       0.05417623
Pt       7.01415756       3.93263213      24.61183558      -0.52015424       0.49214673       0.26329359
Pt       9.81923881       4.04258394      24.52292984      -0.40701056      -0.46797475       0.11483704
Pt      13.89731066       6.46116024      24.62271133       0.14836964       0.11352758      -0.20721397
Pt       5.51651393       6.50622347      24.85792582       0.16705358      -0.46482849      -0.62383890
Pt       8.26220234       6.39069481      24.64356088       0.20352829       0.54720253       0.43500036
Pt      11.06792167       6.41671932      24.50805056       0.43212405       0.52547413       0.56100547
Pt      15.27252431       8.90137919      24.52206723       0.06498901      -0.31870702      -0.15453796
Pt       6.86825765       8.91077868      24.69048864       0.30544889      -0.29182872      -0.14180999
Pt       9.62970388       8.86187141      24.53069270       0.29635438       0.01793370       0.68485993
Pt      12.41642130       8.87767944      24.62321224       0.38284424      -0.39560232      -0.33994871
Pt      11.16884990       0.05098029      27.10700127       0.55834132       0.07410974       0.58605164
Pt       8.36862889       9.64399204      27.25828842      -0.12453371       0.58446735      -0.48862663
Pt       5.51618555       0.05684533      26.95724059       0.54135919       0.06286065       0.83382916
Pt       8.48878227       0.01335829      26.93378205      -1.19570291       0.72290683      -0.18936485
Pt       1.54472810       2.46060413      27.05780448      -0.98788863      -0.32342654       0.69546753
Pt       4.23540687       2.45784913      27.22411521       0.21224098       0.01320982      -1.43506134
Pt       7.12906223       2.47814072      27.28152520      -0.84890169      -0.50407124      -0.10787476
Pt       9.82180692       2.46061647      27.15179007       0.05397517      -0.07823045       0.28922856
Pt      13.94863787       4.89720126      27.15021186       0.81049460      -0.35728285      -0.44417560
Pt       5.64165507       4.84656647      27.24529790      -0.25421783       0.12246139      -0.46437907
Pt       8.40356128       4.87174630      26.99816623      -0.03976700       0.12783834       0.05533246
Pt      11.20036049       4.91401162      27.07495577      -0.61218256      -0.62911046      -0.12169649
Pt      15.27862656       7.33534105      27.05419516       0.36153954      -0.01032349       1.06992507
Pt       6.99862386       7.31327544      27.34841510      -0.25525966      -0.09659481      -0.59250098
Pt       9.82597273       7.34710429      27.05514721      -0.70125818      -0.10774363       0.88807195
Pt      12.54095104       7.22582229      26.97407849       0.14627726       0.49617720      -0.08915146
H       11.02170533       0.17463404      28.69300212       0.16997230      -0.10246901      -0.71848840
H        8.53789904       9.52155240      28.79322966      -0.16521165       0.26146629      -0.08872261
H       11.07824711       9.54914796      28.55503562       0.14028248       0.24028015      -0.78237212
H       13.98233873       9.63194692      28.46892057      -0.04672106       0.05159510       0.33730844
H       12.55241583       2.49210286      28.65198515       0.18182972      -0.07350604      -0.87924820
H        4.53714856       2.65346361      28.67965304      -0.03008474      -0.09128883       0.94498563
H        7.08471501       2.54816571      28.86362992       0.03843851      -0.13136822      -0.69092774
H        9.47067689       2.20728902      28.69253726       0.41241217       0.33004868      -0.75672305
H        3.17307470       4.75927017      28.62733768      -0.18630961       0.07845568       0.30061263
H        5.66131728       4.63877569      28.78895440      -0.00355404       0.23056267      -0.12915295
H        7.98773902       5.00589279      28.49900071       0.35639736      -0.02567632      -0.02754860
H       10.93250013       4.81159553      28.60468327       0.12525027       0.10656195      -0.06996924
H       14.96201476       7.81075478      28.59345750       0.43017232      -0.63512576      -0.94104260
H        7.33385943       7.49708452      28.85353705      -0.28271905      -0.15903148      -0.08026059
H        9.59084954       7.74917039      28.63412603       0.44452912      -0.65462065      -1.20300078
H       12.87714655       6.95263852      28.46843449      -0.27997285       0.13250464       0.11603544
H        5.73626176       9.52493855      18.25663843      -0.00170644       0.09757209       0.58568347
H        8.45876960       9.47579001      18.19405379      -0.13763759       0.37156558       1.33370924
H       11.16149250       9.57651588      18.30915877       0.01356437       0.06505277      -1.23537147
H        8.35328574       0.34590268      18.00829386       0.13672562      -0.41380289       0.55444843
H       12.29036954       2.91168704      18.25320010       0.24384576      -0.27596244       0.08019297
H        4.15527673       2.21240347      18.17468772      -0.00033013       0.05400191      -0.28345284
H        6.86234567       2.37762840      18.16185073       0.07667828       0.03086790       0.08127618
H        9.50376695       2.46654085      18.15180055       0.22495894       0.04256127      -0.26011571
H       14.12294651       5.15696666      18.34999844      -0.02847523      -0.20831233      -0.24068150
H        5.65941111       4.91440318      18.30093642      -0.00389908      -0.17326048       0.69914395
H        8.33800566       4.89113232      18.21819508      -0.05838205       0.08732007      -1.79421699
H       11.28245813       4.96065780      18.29323154      -0.08501225       0.06419814       0.39982328
H        4.24143324       7.11695064      18.17319994       0.09821358       0.02964019      -0.19350098
H        7.16486889       7.04006590      18.40355564      -0.09322821       0.06544846      -0.45404503
H        9.41005182       7.52982075      18.09514683       0.32038441      -0.20857279       0.55647236
H       12.53304670       7.22257882      18.10281015       0.01432182       0.03182152       0.26367745
H        4.31856239       0.93867570      10.68748699       0.20292099      -0.85492450      -0.71962124
H        4.45869453       0.35144653      10.19059204      -0.20603485       0.84722692       0.72391087
H        1.52063218       0.85116246      31.78933025       0.54526621       0.93291354      -0.53519678
H        1.20249711       0.28481106      32.09681475      -0.55040717      -0.99926704       0.52551347
H        8.69227578       3.93199773      14.84947416       0.23752727      -0.16845818       0.04617805
H        9.29931733       3.48731279      14.93554457      -0.23489831       0.17590255      -0.01479953
H        6.53955312       9.22377465      40.81853702       0.08664130       0.28646436       0.20464748
H        6.36299083       8.64019319      40.40138691      -0.08612657      -0.28413880      -0.20385790
H        7.68914664       7.52845178       9.91883323      -0.74100691       0.06774934       1.31710064
H        7.29915138       7.56440473      10.61097849       0.74828649      -0.07287124      -1.31762052
H        9.43435991       2.05952810      32.52916234      -0.28547654       0.38210967       0.99342495
H        9.62039232       1.81257986      31.87655232       0.29409206      -0.37731174      -1.02255917
H        4.64516508       5.77910505       7.54625911      -0.67504293       0.25590473      -0.88134259
H        4.18232165       5.95122232       6.93971320       0.67724150      -0.24450627       0.88777757
H        8.46215921       2.86614649      36.56390171      -0.04934204      -0.00965192      -0.01595447
H        9.16613999       3.01500048      36.76384007       0.05065331       0.01018414       0.01081046
H        4.32217901       2.67504753      15.20715641      -0.82065427      -0.14433454       0.33807540
H        3.61184356       2.55322288      15.49305974       0.82390547       0.14196733      -0.31974885
H        4.39895223       4.60060332      34.91961519       0.05648303      -0.07345899      -0.22010574
H        4.23194291       4.84305110      35.60073459      -0.05360776       0.07548811       0.21414052
H       10.73507731       6.68875679      13.88144435      -0.01207673       0.00088934      -0.07813866
H       10.79047148       6.94740721      13.17916415      -0.00881734      -0.03183952       0.05986069
H        6.17325678       1.11645946       0.47517522      -0.31206715      -0.20005575      -0.26695356
H        6.68358586       1.43407923       0.90074666       0.32339314       0.19576895       0.26409474
H        8.00798435       4.11233713      10.37434013       0.09681001       0.08593605      -0.05577546
H        7.47451804       3.70061155      10.69135359      -0.10107933      -0.07701920       0.05924748
H        9.33439883       1.54357949      44.38835541      -0.23031455      -0.15227951      -2.42377305
H        9.39974011       1.58684960      45.07818407       0.22505048       0.14985007       2.42976475
H       15.19036031       8.05746844       1.46251198       0.92803538      -1.17008138      -1.13403630
H       14.84095201       8.49791914       1.88814986      -0.93622100       1.17453969       1.13192904
H        2.70375952       3.12280514      37.25052544      -0.46954903       0.74535698       0.85317051
H        2.40407693       3.59855014      37.79786436       0.46174753      -0.74144065      -0.84702379
H       11.31635558       5.77210692       2.50819343      -0.42325452       0.71598285       1.41638505
H       11.10938822       6.11968832       3.19764820       0.42611796      -0.71379125      -1.41725981
H       12.82651067       3.02802140      31.03316460      -0.34353155       0.48492911      -0.13352099
H       12.36736587       3.59717862      30.81028013       0.34129879      -0.39544418       0.20629762
H       15.81267759       9.57609688       6.71304328       0.83042914      -0.26933748      -0.44998449
H        9.61219045       0.09236661       7.04607453      -0.82996708       0.25869825       0.45169324
H       10.70618591       6.41187185      33.41593392       1.19187975      -0.44761547       0.14217970
H       10.03813089       6.66129022      33.33419613      -1.19062471       0.44293606      -0.14966907
H       13.70605646       6.69288763      11.33991881       0.27234155       0.17448433       0.14449987
H       13.13072851       6.33511280      11.04431523      -0.27973038      -0.17244056      -0.13919131