144
Lattice="11.174675241468789 0.0 0.0 5.587337620734394 9.677552638152974 0.0 0.0 0.0 46.84306309572773" Properties=species:S:1:pos:R:3:forces:R:3 energy=38.82226778404143 pbc="T T T"
Pt       5.63791954       9.67091065      20.02079759      -0.18644768      -0.02075189      -0.23708299
Pt       8.40943833       9.67554651      20.00161257      -0.23021351      -0.11620847       0.29903090
Pt       5.59124376       0.02295781      19.96083289       0.21337742       0.02043127      -0.90998960
Pt      13.98325027       9.67028002      19.97441500      -0.03580133       0.18232723       0.21870525
Pt       1.42619617       2.43521392      20.00324634      -0.33691868      -0.02669962      -0.48395032
Pt       4.17929629       2.41972420      20.04793613       0.22158077      -0.09780631      -1.08083689
Pt       6.97905104       2.44863885      19.97142115       0.28948000       0.23884754      -0.93435979
Pt       9.80360361       2.41823722      19.96410541       0.04934513       0.01986743      -1.07842720
Pt       2.81658406       4.82049692      19.99535731      -0.60375500       0.12881717      -0.43107969
Pt       5.54131807       4.85982349      20.00250839       0.33468696      -0.37016562      -1.31611872
Pt       8.40121021       4.86255145      19.99887358       0.09954772      -0.35855812      -0.04513161
Pt      11.17576845       4.88793943      19.97825852       0.19514340      -0.43079865       0.72508019
Pt      15.32519625       7.22458201      19.95918066       0.14533342       0.23606406      -0.78612179
Pt       6.96816140       7.16880140      20.02878895       0.02150111       1.01916277       0.51670641
Pt       9.78813539       7.28222048      20.00183425      -0.12409199      -0.18473095       1.71815479
Pt      12.57429071       7.28444011      19.99227251      -0.01812808      -0.02526700      -0.83427316
Pt       1.44542942       0.83655650      22.31050604      -0.54822534      -0.31601250      -0.12785918
Pt       4.17824215       0.84731395      22.29956939       0.40840253      -0.72661155      -0.03094169
Pt       6.96152429       0.82707663      22.28000405       0.04645907      -0.14647524      -0.25953925
Pt       9.75847177       0.76468160      22.24165141       0.28539094       0.60775948       0.59733415
Pt       2.77098944       3.20088099      22.28069664       0.02935943       0.48073128       0.34630859
Pt       5.53279892       3.23758720      22.28071915       0.79733801       0.10069546       0.14791121
Pt       8.38915871       3.22409100      22.26115228      -0.23302887      -0.05343575       0.37328383
Pt      11.17928027       3.21498953      22.31533170      -0.24148960      -0.19818398      -0.79798180
Pt       4.14058091       5.63209457      22.28391955       0.33537731       0.40552729       0.24010120
Pt       6.96726024       5.66672659      22.24053621       0.13239382      -0.52358001       1.06905830
Pt       9.82647207       5.61818807      22.26539625      -0.72719520       0.36740348       0.52485168
Pt      12.55738126       5.62023425      22.31802677       0.24163616       0.49129415      -0.71555656
Pt       5.63313787       8.10426455      22.29168022      -0.67150640      -0.44218326       0.09259726
Pt       8.32929899       8.05949716      22.28537141       0.79095674      -0.13691409       0.08549742
Pt      11.17596683       8.06303237      22.27959685      -0.04582760       0.13589644       0.18128233
Pt      13.99152803       8.10844099      22.26733044      -0.23303093      -0.52491903       0.16875462
Pt      11.18584408       1.63528556      24.51887877      -0.12113008      -0.54133630       0.40116772
Pt       2.85662723       1.64482586      24.55266608      -0.39625382      -0.05304161       0.39679891
Pt       5.64468063       1.59766521      24.54133163      -0.35069156       0.07451109       0.33806023
Pt       8.37946725       1.55157606      24.55073495       0.12361737       0.53984684      -0.23305483
Pt      12.53764019       4.06028666      24.51971101       0.65568739      -0.57817304       0.58617401
Pt       4.22177878       4.01905039      24.54176636      -0.38662657      -0.01233564       0.26208696
Pt       6.96980216       4.05192606      24.56211079       0.47965398      -0.29554063      -0.22385955
Pt       9.75991322       4.01033104      24.53474940      -0.34463790       0.04906797       0.15454388
Pt      13.95650519       6.43847372      24.52852610       0.09785954       0.05878108       0.32180932
Pt       5.58379533       6.39452965      24.57768861      -0.07672764       0.69045389      -0.42501137
Pt       8.35674091       6.48180675      24.61524928       0.02481192      -0.55270624      -1.07605743
Pt      11.18392687       6.39422715      24.55087494      -0.43875185       0.72336012       0.04785004
Pt      15.32346138       8.82869076      24.55184722       0.54694825       0.17930952       0.19481431
Pt       6.99300206       8.86726371      24.54997756      -0.36158866       0.24046913       0.18467027
Pt       9.77229460       8.85807259      24.51212608       0.15344962       0.05220677       0.23954791
Pt      12.53112749       8.83620810      24.58041506       0.17293936       0.04083195      -0.31012571
Pt       0.03869399       0.05864469      26.87375552      -0.78565538      -0.54137433       0.50240695
Pt       2.78889977       0.00599309      26.81488233       0.10392322       0.13256583       1.25857460
Pt      11.15653813       9.63822471      26.87703927      -0.20266697       0.57504296       0.95725906
Pt       8.36713723       0.02825603      26.86282885      -0.06162883      -0.33889535       0.37701836
Pt       1.40598967       2.42058468      26.84237259      -0.04163928       0.34369764       0.62266850
Pt       4.19009607       2.41168474      26.90127211       0.35583532       0.19271551      -0.03244732
Pt       6.99665194       2.46352307      26.89618984      -0.11834738      -0.24952996      -0.63526618
Pt       9.74411845       2.41507128      26.86482838       0.32529831      -0.01166690      -0.88968790
Pt      13.95846781       4.82867872      26.85329979       0.07864466       0.06848828      -0.29661793
Pt       5.59342516       4.85389440      26.88107497       0.00226309      -0.16827306      -1.47474098
Pt       8.43161319       4.85209316      26.86534834      -0.34696782      -0.16291000       0.81911653
Pt      11.20230005       4.83891687      26.82728367      -0.17075418       0.00760121       0.81405813
Pt       4.19122190       7.21601329      26.86297611      -0.05232684       0.39980733      -0.36597341
Pt       6.99671782       7.27852291      26.88352040      -0.60573655       0.17813607       1.04406798
Pt       9.71869029       7.24867926      26.81045778       0.78484833       0.15531933       1.26309752
Pt      12.54821611       7.28133999      26.87458606       0.46194294      -0.03459368       0.87440836
H       16.47566454       9.63968341      28.41887004       0.30333647       0.12159416      -0.36538646
H        2.72002474       0.04386677      28.41348106       0.07030708      -0.01470054      -0.60240591
H        5.39410508       0.20813320      28.44608348       0.13541925      -0.28446868      -0.57757264
H        8.22954415       0.03340753      28.41021646       0.07651475       0.00518000      -0.03248923
H       12.55951194       2.59018042      28.40427348       0.02352097      -0.14325802      -0.17456223
H        4.49518522       2.64767670      28.39640957      -0.18265092      -0.10842240       0.31113771
H        6.93888915       2.24524605      28.38841515       0.03835392       0.05797607       0.96319753
H        9.76712750       2.44933198      28.35736838       0.01104032       0.00566543       1.33962560
H        2.86733443       4.93091337      28.36830568      -0.04159300      -0.05723019       0.72250652
H        5.72323156       4.85005327      28.33734502       0.11330415       0.02673947       2.18086886
H        8.52287674       4.87922554      28.43853451      -0.08514646      -0.04519434      -0.26321697
H       11.16204534       5.00841939      28.38408332       0.06316712      -0.14088309      -0.08430417
H       15.27828342       7.17520623      28.37694153       0.04532804       0.02084753       0.81980067
H        6.88616235       7.52555163      28.45013661       0.08290600      -0.23858553      -0.44308931
H        9.81504550       7.18475786      28.39348715      -0.07175075       0.11051862      -0.38583621
H       12.78303231       7.44467855      28.43737373      -0.25335628      -0.16178308      -0.43382740
H       11.09579803       0.06640289      18.49687205       0.09694294      -0.05505272      -0.57961363
H        2.83461091       0.14852038      18.49763146      -0.02155227      -0.05266263      -0.96555883
H        5.68028846       0.06493681      18.37009536      -0.08349273      -0.01811625       0.57707208
H        8.55168890       0.06085766      18.46923902      -0.05861782      -0.00713481      -0.88037616
H        1.54323046       2.46815334      18.46029705      -0.10773746      -0.02132345      -0.23708761
H        4.20503422       2.33955426      18.49129815       0.01033095       0.06777840      -0.06398371
H        7.17905804       2.82406017      18.42943023      -0.20096232      -0.37853301       0.56973130
H        9.85277845       2.38556178      18.36121417      -0.01632316       0.05369312       0.70373541
H       13.92618980       4.79779198      18.45004048       0.00677126       0.00755750      -0.24827422
H        5.54604335       4.85924181      18.40478107      -0.01752901      -0.01084440       0.57037282
H        8.63191531       4.79577587      18.49373267      -0.06086033       0.06469230      -0.73452079
H       11.11930676       4.89873610      18.48667844       0.05196894      -0.00130483      -1.38365984
H       15.23667934       7.04603468      18.38809274       0.11471184       0.19748233       0.39544675
H        6.94589293       7.11173779      18.54724537       0.00294083       0.00287269      -1.74056959
H        9.80349820       7.46697226      18.55930343      -0.00609943       0.17051326      -2.43040490
H       12.53711513       7.34676524      18.40887588       0.03549177      -0.07809032       0.40516937
H        9.08328981       7.86658635      12.97871140      -0.24022411      -0.32949615       0.02826260
H        9.51903983       8.45984958      12.92889184       0.24486186       0.33274782      -0.02831633
H        0.49737734       0.61388256      33.18877075       0.63558394       0.18417585      -0.40904969
H        1.13149614       0.79827058      32.79092947      -0.63719988      -0.19171947       0.39155564
H        4.80378008       7.77546346      14.88129649       0.42574927       0.01342733       0.01703253
H       15.24805066       7.67782773      14.85398660      -0.38313657      -0.13563368      -0.03616334
H        2.75769420       2.56437828      37.01702809      -0.22066648       0.11057724       0.07325433
H        2.10834268       2.88703503      37.22812595       0.22527313      -0.10988690      -0.07371559
H       10.45937476       7.85520529       8.49170148      -0.43857548      -0.10114720       0.10078365
H        9.73516344       7.68546702       8.65186351       0.44022611       0.10393094      -0.09389515
H        7.44919146       0.65703653      33.92121951      -0.71547121       0.74460030      -0.83495325
H        7.02334241       1.10231848      33.42877073       0.71487498      -0.75290984       0.81841278
H        4.86236526       6.63285884       2.20845955      -0.25111711       0.44536498       0.31171131
H        4.56717577       7.22064059       2.59832201       0.20592225      -0.49738535      -0.30506527
H        8.15730767       2.91733619      38.20622295       0.30854270       0.35563013      -0.30770555
H        7.75903061       2.44127874      38.59806136      -0.22004145      -0.33447716       0.25332594
H        5.87725147       1.65281471      15.75340064      -0.21806067       0.66481537       0.73702013
H        5.71645593       2.14837196      16.33261001       0.20790584      -0.65233570      -0.78026146
H        4.14836033       6.65280106      34.75405337      -0.01510549       0.05527692      -0.00331004
H        4.35125452       5.93468162      34.78004910       0.01355769      -0.05404228       0.00301719
H       13.63751703       8.97068076      15.86902903      -0.27141622       0.03249952       0.06244567
H       12.90929320       9.08411602      16.02745408       0.18332815      -0.03704394      -0.04869979
H       13.83552627       9.57260708      44.81024032       0.17592157      -0.38030449      -0.21726517
H        7.98970176       0.51522516      45.10772430      -0.18340477       0.44684541       0.20342390
H        7.67749300       0.82441007      10.71741403      -0.43219015      -0.18813072       0.38970137
H        7.13630396       0.58942987      11.20478438       0.42758605       0.18353076      -0.38700479
H       14.36484918       6.75787385      45.21329848       0.02284837      -0.04825241      -0.00840571
H       13.97386105       7.35418312      45.43505960      -0.01244208      -0.01856182       0.02749178
H        6.52025584       9.51682690       1.80912469      -0.08099876      -0.22314657       0.11932877
H        6.27635418       8.89485153       2.15980174       0.11331496       0.24241005      -0.14689279
H        5.55893237       1.74859326      40.27271326       0.48748687       0.32235748      -0.92308962
H        5.91521099       1.98294446      39.61922736      -0.58159590      -0.34429696       0.97400802
H        1.41527575       2.26755176       3.51580989      -0.16823655       0.16157122       0.56923765
H        1.62177210       2.08970304       2.83602988       0.17764165      -0.12818365      -0.55444068
H        8.86944300       0.43928848      30.64031570      -0.18184978       0.15124311       0.17348288
H        9.43076828       0.01251698      30.40911848       0.20458680      -0.14010714       0.01515485
H        4.69998123       5.77036373       7.84951821      -0.10707643      -1.21988952       0.25415820
H        4.63273052       5.00434863       8.00914530       0.10729960       1.21978855      -0.25396228
H        9.92444626       8.93552869      32.46099278      -0.06153164      -0.63490081      -0.56605953
H        9.86652959       8.35545990      31.95222697       0.06274366       0.64639264       0.54281956
H        2.88310346       4.79367012      14.09470302      -0.15482002      -0.07934862      -0.20067796
H       13.62076852       4.56119235      13.52303407       0.16202605       0.08941012       0.21755725
H        8.97513688       7.59443673      42.80841650       0.59016210       0.01515203       0.07640137
H        8.24847680       7.57574209      42.71414377      -0.58965015      -0.01453008      -0.07689065
H       10.58352478       1.00565137      15.47826426      -0.43948975      -0.22943909      -0.13505852
H        9.95291863       0.63600923      15.25770867       0.48317459       0.32976303       0.16880502
H       13.29546019       8.71741333      39.13428143      -0.60075450       0.63422489      -0.63517672
H       12.85947486       9.17465248      38.67716746       0.60251057      -0.63344711       0.63297892
144
Lattice="11.174675241468789 0.0 0.0 5.587337620734394 9.677552638152974 0.0 0.0 0.0 46.84306309572773" Properties=species:S:1:pos:R:3:forces:R:3 energy=40.5796422382147 pbc="T T T"
Pt       5.71424659       9.62689695      19.85102097      -0.82375890      -0.00145550      -1.01651680
Pt       8.38667810       9.67470565      19.83879479       0.37952468       0.00892096      -1.55690539
Pt      11.26215733       9.62407456      19.79824171       0.18929465       0.75927639       0.99962777
Pt      14.10664209       9.63999361      19.54064890      -0.44252956       0.19343002      -0.14024083
Pt       1.46994507       2.47594828      19.71385203      -0.57129323       0.03790089       0.00543480
Pt       4.18081745       2.34168179      19.70112896       0.65770215       0.10287268       0.50104147
Pt       7.08537602       2.42046359      19.70242512      -0.54085654      -0.68254286       0.03188682
Pt       9.83923857       2.46241450      19.65545355       0.12739766      -0.47237650       0.37268862
Pt       2.92669082       4.79232077      19.85011473      -0.36468068       0.62576514       0.16755341
Pt       5.65812076       4.75383448      19.89253348       0.09883501       0.26872376      -0.56507862
Pt       8.47926291       4.74899743      19.67271880      -0.12324430       0.60339016       2.16612291
Pt      11.21530599       4.96771691      19.87007677      -0.04449243      -0.50845885      -0.28444889
Pt       4.33985779       7.17507305      19.70719783      -0.48663941       0.28688321       0.76902628
Pt       7.14751893       7.15555311      19.92973574      -1.30359769      -0.10384224       0.60696501
Pt       9.70912618       7.39699148      19.64696774       1.14912581      -0.92815852      -0.23966488
Pt      12.57489806       7.27392488      19.66967379       0.58442235       0.01228370       0.04912710
Pt       1.43394162       0.81353214      22.09205942      -0.19398589      -0.40318191       0.94927967
Pt       4.21102780       0.77474996      22.27151904      -0.07081487       0.06786479      -0.42334631
Pt       6.94034398       0.82291031      22.29567950       0.21914183      -0.26516843      -0.58130306
Pt       9.68952312       0.74206221      22.01237705       0.35170639       0.87562269       0.76195598
Pt       2.82483572       3.16214183      22.21633353      -0.07284862       0.35156110      -0.00132669
Pt       5.55726680       3.19380575      22.23039527       0.13391824       0.05821518       0.13966207
Pt       8.30005284       3.23575845      22.12107191       0.91112137      -0.07206982       0.50323510
Pt      11.23814840       3.08986566      22.14377880      -0.85077786       0.86814153       0.30886948
Pt       4.17952952       5.58763469      22.34586020       0.55232829       0.40759701      -0.10078725
Pt       6.99750035       5.64623500      22.36944995      -0.74827462       0.05010335      -0.41114616
Pt       9.70939164       5.78042376      22.24177584       0.33268175      -1.35317016      -0.68564743
Pt      12.67678170       5.62060127      22.23783794      -0.86939651       0.06271641      -0.05276804
Pt       5.49642765       8.06743167      22.24326119       0.53885233      -0.38546187       0.14678995
Pt       8.35104045       8.09215140      22.27190250      -0.33846724       0.08191972       0.04955725
Pt      11.16781015       8.01021533      22.09658703       0.34648600       0.27581641       0.55451065
Pt      13.93290440       8.12006034      22.06627875      -0.14839818      -0.55878919       0.31522086
Pt      11.09069632       1.59743447      24.57428020       0.13651916       0.25213629      -0.08898409
Pt       2.69775125       1.62506856      24.57761799       0.22719374      -0.39303839       0.36360544
Pt       5.55255867       1.62788313      24.62881703      -0.34631246       0.22815071       0.39477545
Pt       8.34719558       1.58093616      24.59235911       0.13829939       0.30729800      -0.04224374
Pt      12.54875100       4.01542454      24.65535074      -0.22180009       0.18921880      -0.20457986
Pt       4.09114866       4.02334640      24.67621872       0.71105868       0.03336778       0.05396618
Pt       7.01470169       3.93240514      24.61123690      -0.51748240       0.49759051       0.26833114
Pt       9.81972395       4.04201981      24.52244834      -0.41281429      -0.45931861       0.11984479
Pt      13.89757943       6.46187969      24.62182123       0.14558616       0.10293823      -0.20079006
Pt       5.51617806       6.50535114      24.85843060       0.17627355      -0.46445003      -0.61627805
Pt       8.26238641       6.39158563      24.64336804       0.20151640       0.53320390       0.44676366
Pt      11.06777459       6.41715410      24.50864267       0.43198162       0.51600349       0.55563909
Pt      15.27314925       8.90194219      24.52215643       0.06293932      -0.32477176      -0.15281405
Pt       6.86923906       8.91022248      24.69034109       0.29354209      -0.29307905      -0.13665132
Pt       9.62941782       8.86120292      24.53087380       0.30759498       0.02975744       0.68320853
Pt      12.41593826       8.87722375      24.62352949       0.38474041      -0.38357416      -0.34284121
Pt      11.16892533       0.05070993      27.10746459       0.57223403       0.08599724       0.63094079
Pt       8.36878762       9.64391652      27.25848347      -0.13081671       0.60255194      -0.60615975
Pt       5.51664603       0.05639753      26.95762379       0.54708630       0.07261541       0.88272381
Pt       8.48839744       0.01340614      26.93456261      -1.19199848       0.71977526      -0.21977226
Pt       1.54418204       2.45970041      27.05855029      -1.00389266      -0.31208104       0.76129341
Pt       4.23435600       2.45789333      27.22447246       0.19199689      -0.00429760      -1.53972244
Pt       7.12949552       2.47873684      27.28274329      -0.84945321      -0.51398695      -0.34982124
Pt       9.82135253       2.46014047      27.15118712       0.05911455      -0.07419124       0.24616027
Pt      13.94845542       4.89695369      27.15149770       0.85800034      -0.37758556      -0.26900530
Pt       5.64140935       4.84692777      27.24522234      -0.25604564       0.09169815      -0.30381006
Pt       8.40373161       4.87238545      26.99825871      -0.08677576       0.14315620       0.24133842
Pt      11.20157449       4.91533024      27.07491364      -0.62482440      -0.64355129      -0.10637477
Pt      15.27864435       7.33541328      27.05413675       0.36423227      -0.02980526       1.00833607
Pt       6.99867526       7.31372048      27.34886270      -0.21478277      -0.08269466      -0.34842923
Pt       9.82595301       7.34712810      27.05490739      -0.71175212      -0.10238390       0.86489940
Pt      12.54106369       7.22610884      26.97360679       0.11511935       0.52159870      -0.23330706
H       11.03668527       0.18042843      28.69789666       0.15507147      -0.11396699      -0.77118522
H        8.54580180       9.52328776      28.78575939      -0.16042502       0.25768471       0.03835006
H       11.08282698       9.55430877      28.56034393       0.13617463       0.23928899      -0.83857822
H       13.99075955       9.61948226      28.46832558      -0.05367075       0.06104365       0.36417186
H       12.54276873       2.49634511      28.65731264       0.19854857      -0.08166673      -0.95865285
H        4.53977653       2.66986551      28.67209864      -0.00970643      -0.08257536       1.05141544
H        7.08012691       2.55226067      28.84834933       0.03796105      -0.12591799      -0.44246837
H        9.46043992       2.19898527      28.68510718       0.41187456       0.33021787      -0.70661867
H        3.17056353       4.75148849      28.63950848      -0.23609568       0.10363887       0.10531882
H        5.65396248       4.61727288      28.79616159       0.00565617       0.27414131      -0.29082316
H        7.99013981       5.00556657      28.51292170       0.40141737      -0.04064117      -0.23055907
H       10.93364497       4.80694758      28.60525743       0.12656179       0.11175018      -0.08727507
H       14.95524421       7.81217076      28.58525639       0.43013915      -0.62387234      -0.87056303
H        7.33157407       7.49568283      28.87064514      -0.33472836      -0.18476515      -0.33496130
H        9.57405281       7.76453751      28.62620263       0.46255282      -0.66971332      -1.17648315
H       12.86902168       6.95481356      28.46072239      -0.24512206       0.10725203       0.27167231
H        5.73870579       9.52282897      18.26076989      -0.00467889       0.09746153       0.52370882
H        8.44751907       9.47790195      18.19867275      -0.11833581       0.36193371       1.28088975
H       11.17024099       9.59144975      18.30156018       0.02039194       0.06700038      -1.09557235
H        8.33969200       0.34803883      18.01427775       0.14525706      -0.40331665       0.49449852
H       12.29016004       2.90785328      18.25399686       0.23937641      -0.26838335       0.05588499
H        4.14895468       2.20527714      18.16920389       0.00410245       0.06737705      -0.17156999
H        6.86265438       2.37575924      18.15634720       0.08658191       0.03631761       0.16535743
H        9.50414047       2.46443303      18.14477228       0.24987113       0.04278676      -0.13855548
H       14.12495406       5.16385095      18.34846761      -0.02848474      -0.21948405      -0.19083861
H        5.65734690       4.90026945      18.30714774      -0.00128118      -0.14862958       0.59540403
H        8.34235487       4.88619678      18.21961056      -0.06273415       0.09356014      -1.85884249
H       11.29038643       4.95473871      18.29204885      -0.09292662       0.07186465       0.42378828
H        4.25956285       7.12840725      18.18065262       0.08204777       0.01608817      -0.36427829
H        7.16033246       7.04127670      18.41494511      -0.08522462       0.04612277      -0.70163995
H        9.41837921       7.53197716      18.09950843       0.29830405      -0.20361339       0.47782695
H       12.53863754       7.22960121      18.10900866       0.00807892       0.02384981       0.16253769
H        4.31680106       0.94806728      10.69349743       0.25077412      -1.01123428      -0.88474447
H        4.46206774       0.36492211      10.18105221      -0.25373963       1.00348473       0.88883221
H        1.53418040       0.86691007      31.79561739       0.20902145       0.31675068      -0.18879534
H        1.19439379       0.28499391      32.09352071      -0.21346869      -0.38442802       0.17981835
H        8.69637271       3.95037264      14.83125203       0.32961777      -0.24647316       0.06559219
H        9.29570030       3.49191587      14.92891484      -0.32678261       0.25380880      -0.03464896
H        6.53172164       9.24694979      40.82004793      -0.00848027      -0.03063058      -0.02122857
H        6.36573794       8.64461900      40.40680758       0.00900426       0.03321454       0.02199939
H        7.69173913       7.53091270       9.91938390      -0.52767062       0.04900703       0.97516835
H        7.31966599       7.56588627      10.60552386       0.53492141      -0.05438218      -0.97548562
H        9.43849803       2.06195923      32.52683223      -0.35316291       0.46048951       1.26246297
H        9.61962109       1.82737149      31.87520776       0.36172467      -0.45559591      -1.29178298
H        4.65185437       5.78730604       7.55076280      -0.81272757       0.29371309      -1.09673882
H        4.19201609       5.95071804       6.92831231       0.81490219      -0.28234133       1.10330653
H        8.46921996       2.86012098      36.56582863      -0.68551683      -0.15417159      -0.21648896
H        9.15007230       3.01401732      36.77904686       0.68651289       0.15466601       0.21137966
H        4.31879712       2.68550155      15.20922012      -0.42043558      -0.08937592       0.17439845
H        3.62274561       2.54346949      15.48518347       0.42349005       0.08727276      -0.15650821
H        4.39269743       4.59736669      34.91407091      -0.14951326       0.23166078       0.60749412
H        4.21707306       4.85735963      35.61399584       0.15375276      -0.22851221      -0.61507994
H       10.74623704       6.69932212      13.88953721      -0.01754547      -0.01784911      -0.03621476
H       10.79582884       6.94662472      13.18413323      -0.00628275      -0.01636173       0.01524999
H        6.18738661       1.10703346       0.48103783      -0.27254158      -0.18656543      -0.23942448
H        6.68869599       1.43891506       0.90853770       0.28403571       0.18226449       0.23644689
H        8.00715168       4.11302653      10.36373353      -0.28066808      -0.22615837       0.17720918
H        7.48423312       3.66993446      10.69086738       0.27631983       0.23477131      -0.17363715
H        9.34013825       1.52478834      44.37946251      -0.17626277      -0.20514603      -1.97124898
H        9.40214679       1.59716347      45.07583636       0.17095292       0.20274821       1.97731090
H       15.19796045       8.06657289       1.46622477       0.76032281      -0.92175239      -0.92978144
H       14.83959702       8.50099593       1.90276806      -0.76861775       0.92647165       0.92730856
H        2.71153044       3.11873523      37.24654182      -0.61340380       1.00161576       1.14218438
H        2.41308084       3.60682643      37.80467543       0.60400051      -0.99853015      -1.13378561
H       11.32453456       5.77792981       2.51847032      -0.31678513       0.47696075       1.00352991
H       11.10864280       6.09962036       3.19800127       0.31972185      -0.47476941      -1.00422907
H       12.81414522       3.02788570      31.01653963      -0.14706995       0.25545454      -0.03571237
H       12.37892693       3.60814682      30.80576808       0.14431937      -0.16377209       0.11277065
H       15.80560933       9.58615755       6.72423079       1.35605216      -0.43279305      -0.71771091
H        9.61300771       0.09874450       7.04504554      -1.35547125       0.42221245       0.71936411
H       10.70690084       6.39857211      33.40302738       0.84203839      -0.33732259       0.08116896
H       10.03514309       6.66556801      33.33535496      -0.84050912       0.33247992      -0.08874498
H       13.71318977       6.69063043      11.35370790      -0.24211721      -0.14003952      -0.11718343
H       13.11742167       6.33345410      11.05397419       0.23487236       0.14222984       0.12242001